restart_version 1.0 name M_L0_dw1
dataFile    name M_L0_dw1.data fileType MULTIPLE_FILES_PADDED saveCount 100 counter 1001 nextSavedTimeStep 100000
fStatFile   name M_L0_dw1.fstat fileType MULTIPLE_FILES_PADDED saveCount 100 counter 1001 nextSavedTimeStep 100000
eneFile     fileType ONE_FILE saveCount 100 counter 1001 nextSavedTimeStep 100000
restartFile fileType ONE_FILE saveCount 100 counter 1001 nextSavedTimeStep 100000
statFile    fileType ONE_FILE saveCount 100 counter 0 nextSavedTimeStep 100000
xMin 0 xMax 20 yMin 0 yMax 10.3923 zMin 0 zMax 20.5143
timeStep 7.1904e-05 time 7.1904 ntimeSteps 100000 timeMax 7.1904
systemDimensions 3 particleDimensions 3 gravity 0 0 0 backgroundDrag 0 writeVTK 0 NO_FILE NO_FILE random  0 1103515245 12345 1073741824 607 273 615141746
Species 1
LinearViscoelasticFrictionSpecies id 0 density 1 stiffness 200000 dissipation 10 slidingStiffness 57142.8571 slidingDissipation 2.8571 slidingFrictionCoefficient 0 slidingFrictionCoefficientStatic 0 rollingStiffness 80000 rollingDissipation 0 rollingFrictionCoefficient 0 rollingFrictionCoefficientStatic 0 torsionStiffness 0 torsionDissipation 0 torsionFrictionCoefficient 0 torsionFrictionCoefficientStatic 0
Walls 2
InfiniteWall id 0 indSpecies 0 position 0 0 0 orientation 0.707106781186548 0 0.707106781186548 0 velocity 0 0 0 angularVelocity 0 0 0 0 force 0 0 0 torque 0 0 0 normal 0 0 -1 factor 1
InfiniteWall id 1 indSpecies 0 position 0 0 20.5143 orientation 0.707106781186548 0 -0.707106781186548 0 velocity 0 0 0 angularVelocity 0 0 0 0 force 0 0 0 torque 0 0 0 normal 0 0 1 factor 1
Boundaries 2
PeriodicBoundary id 0 normal 1 0 0 scaleFactor 1 distanceLeft 0 distanceRight 20 shift 20 0 0
PeriodicBoundary id 1 normal 0 1 0 scaleFactor 1 distanceLeft 0 distanceRight 10.3923 shift 0 10.3923 0
Particles 3480
BaseParticle id 0 indSpecies 0 position 0.000000 0.000000 0.500000 orientation 1 0 0 0 velocity 0.000000 0.000000 0.000000 angularVelocity 0 0 0 force 0.000000 -0.000000 0.000000 torque 0 0 0 radius 0.500000 invMass 0.000000 timeStamp 0.000000
BaseParticle id 1 indSpecies 0 position 0.500000 0.866025 0.500000 orientation 1 0 0 0 velocity 0.000000 0.000000 0.000000 angularVelocity 0 0 0 force 0.000000 0.000000 0.000000 torque 0 0 0 radius 0.500000 invMass 0.000000 timeStamp 0.000000
BaseParticle id 2 indSpecies 0 position 1.000000 0.000000 0.500000 orientation 1 0 0 0 velocity 0.000000 0.000000 0.000000 angularVelocity 0 0 0 force 0.000000 -0.000000 0.000000 torque 0 0 0 radius 0.500000 invMass 0.000000 timeStamp 0.000000
BaseParticle id 3 indSpecies 0 position 1.500000 0.866025 0.500000 orientation 1 0 0 0 velocity 0.000000 0.000000 0.000000 angularVelocity 0 0 0 force 0.000000 0.000000 0.000000 torque 0 0 0 radius 0.500000 invMass 0.000000 timeStamp 0.000000
BaseParticle id 4 indSpecies 0 position 2.000000 0.000000 0.500000 orientation 1 0 0 0 velocity 0.000000 0.000000 0.000000 angularVelocity 0 0 0 force 0.000000 -0.000000 0.000000 torque 0 0 0 radius 0.500000 invMass 0.000000 timeStamp 0.000000
BaseParticle id 5 indSpecies 0 position 2.500000 0.866025 0.500000 orientation 1 0 0 0 velocity 0.000000 0.000000 0.000000 angularVelocity 0 0 0 force 0.000000 0.000000 0.000000 torque 0 0 0 radius 0.500000 invMass 0.000000 timeStamp 0.000000
BaseParticle id 6 indSpecies 0 position 3.000000 0.000000 0.500000 orientation 1 0 0 0 velocity 0.000000 0.000000 0.000000 angularVelocity 0 0 0 force 0.000000 -0.000000 0.000000 torque 0 0 0 radius 0.500000 invMass 0.000000 timeStamp 0.000000
BaseParticle id 7 indSpecies 0 position 3.500000 0.866025 0.500000 orientation 1 0 0 0 velocity 0.000000 0.000000 0.000000 angularVelocity 0 0 0 force 0.000000 0.000000 0.000000 torque 0 0 0 radius 0.500000 invMass 0.000000 timeStamp 0.000000
BaseParticle id 8 indSpecies 0 position 4.000000 0.000000 0.500000 orientation 1 0 0 0 velocity 0.000000 0.000000 0.000000 angularVelocity 0 0 0 force 0.000000 -0.000000 0.000000 torque 0 0 0 radius 0.500000 invMass 0.000000 timeStamp 0.000000
BaseParticle id 9 indSpecies 0 position 4.500000 0.866025 0.500000 orientation 1 0 0 0 velocity 0.000000 0.000000 0.000000 angularVelocity 0 0 0 force 0.000000 0.000000 0.000000 torque 0 0 0 radius 0.500000 invMass 0.000000 timeStamp 0.000000
BaseParticle id 10 indSpecies 0 position 5.000000 0.000000 0.500000 orientation 1 0 0 0 velocity 0.000000 0.000000 0.000000 angularVelocity 0 0 0 force 0.000000 -0.000000 0.000000 torque 0 0 0 radius 0.500000 invMass 0.000000 timeStamp 0.000000
BaseParticle id 11 indSpecies 0 position 5.500000 0.866025 0.500000 orientation 1 0 0 0 velocity 0.000000 0.000000 0.000000 angularVelocity 0 0 0 force 0.000000 0.000000 0.000000 torque 0 0 0 radius 0.500000 invMass 0.000000 timeStamp 0.000000
BaseParticle id 12 indSpecies 0 position 6.000000 0.000000 0.500000 orientation 1 0 0 0 velocity 0.000000 0.000000 0.000000 angularVelocity 0 0 0 force 0.000000 -0.000000 0.000000 torque 0 0 0 radius 0.500000 invMass 0.000000 timeStamp 0.000000
BaseParticle id 13 indSpecies 0 position 6.500000 0.866025 0.500000 orientation 1 0 0 0 velocity 0.000000 0.000000 0.000000 angularVelocity 0 0 0 force 0.000000 0.000000 0.000000 torque 0 0 0 radius 0.500000 invMass 0.000000 timeStamp 0.000000
BaseParticle id 14 indSpecies 0 position 7.000000 0.000000 0.500000 orientation 1 0 0 0 velocity 0.000000 0.000000 0.000000 angularVelocity 0 0 0 force 0.000000 -0.000000 0.000000 torque 0 0 0 radius 0.500000 invMass 0.000000 timeStamp 0.000000
BaseParticle id 15 indSpecies 0 position 7.500000 0.866025 0.500000 orientation 1 0 0 0 velocity 0.000000 0.000000 0.000000 angularVelocity 0 0 0 force 0.000000 0.000000 0.000000 torque 0 0 0 radius 0.500000 invMass 0.000000 timeStamp 0.000000
BaseParticle id 16 indSpecies 0 position 8.000000 0.000000 0.500000 orientation 1 0 0 0 velocity 0.000000 0.000000 0.000000 angularVelocity 0 0 0 force 0.000000 -0.000000 0.000000 torque 0 0 0 radius 0.500000 invMass 0.000000 timeStamp 0.000000
BaseParticle id 17 indSpecies 0 position 8.500000 0.866025 0.500000 orientation 1 0 0 0 velocity 0.000000 0.000000 0.000000 angularVelocity 0 0 0 force 0.000000 0.000000 0.000000 torque 0 0 0 radius 0.500000 invMass 0.000000 timeStamp 0.000000
BaseParticle id 18 indSpecies 0 position 9.000000 0.000000 0.500000 orientation 1 0 0 0 velocity 0.000000 0.000000 0.000000 angularVelocity 0 0 0 force 0.000000 -0.000000 0.000000 torque 0 0 0 radius 0.500000 invMass 0.000000 timeStamp 0.000000
BaseParticle id 19 indSpecies 0 position 9.500000 0.866025 0.500000 orientation 1 0 0 0 velocity 0.000000 0.000000 0.000000 angularVelocity 0 0 0 force 0.000000 0.000000 0.000000 torque 0 0 0 radius 0.500000 invMass 0.000000 timeStamp 0.000000
BaseParticle id 20 indSpecies 0 position 10.000000 0.000000 0.500000 orientation 1 0 0 0 velocity 0.000000 0.000000 0.000000 angularVelocity 0 0 0 force 0.000000 -0.000000 0.000000 torque 0 0 0 radius 0.500000 invMass 0.000000 timeStamp 0.000000
BaseParticle id 21 indSpecies 0 position 10.500000 0.866025 0.500000 orientation 1 0 0 0 velocity 0.000000 0.000000 0.000000 angularVelocity 0 0 0 force 0.000000 0.000000 0.000000 torque 0 0 0 radius 0.500000 invMass 0.000000 timeStamp 0.000000
BaseParticle id 22 indSpecies 0 position 11.000000 0.000000 0.500000 orientation 1 0 0 0 velocity 0.000000 0.000000 0.000000 angularVelocity 0 0 0 force 0.000000 -0.000000 0.000000 torque 0 0 0 radius 0.500000 invMass 0.000000 timeStamp 0.000000
BaseParticle id 23 indSpecies 0 position 11.500000 0.866025 0.500000 orientation 1 0 0 0 velocity 0.000000 0.000000 0.000000 angularVelocity 0 0 0 force 0.000000 0.000000 0.000000 torque 0 0 0 radius 0.500000 invMass 0.000000 timeStamp 0.000000
BaseParticle id 24 indSpecies 0 position 12.000000 0.000000 0.500000 orientation 1 0 0 0 velocity 0.000000 0.000000 0.000000 angularVelocity 0 0 0 force 0.000000 -0.000000 0.000000 torque 0 0 0 radius 0.500000 invMass 0.000000 timeStamp 0.000000
BaseParticle id 25 indSpecies 0 position 12.500000 0.866025 0.500000 orientation 1 0 0 0 velocity 0.000000 0.000000 0.000000 angularVelocity 0 0 0 force 0.000000 0.000000 0.000000 torque 0 0 0 radius 0.500000 invMass 0.000000 timeStamp 0.000000
BaseParticle id 26 indSpecies 0 position 13.000000 0.000000 0.500000 orientation 1 0 0 0 velocity 0.000000 0.000000 0.000000 angularVelocity 0 0 0 force 0.000000 -0.000000 0.000000 torque 0 0 0 radius 0.500000 invMass 0.000000 timeStamp 0.000000
BaseParticle id 27 indSpecies 0 position 13.500000 0.866025 0.500000 orientation 1 0 0 0 velocity 0.000000 0.000000 0.000000 angularVelocity 0 0 0 force 0.000000 0.000000 0.000000 torque 0 0 0 radius 0.500000 invMass 0.000000 timeStamp 0.000000
BaseParticle id 28 indSpecies 0 position 14.000000 0.000000 0.500000 orientation 1 0 0 0 velocity 0.000000 0.000000 0.000000 angularVelocity 0 0 0 force 0.000000 -0.000000 0.000000 torque 0 0 0 radius 0.500000 invMass 0.000000 timeStamp 0.000000
BaseParticle id 29 indSpecies 0 position 14.500000 0.866025 0.500000 orientation 1 0 0 0 velocity 0.000000 0.000000 0.000000 angularVelocity 0 0 0 force 0.000000 0.000000 0.000000 torque 0 0 0 radius 0.500000 invMass 0.000000 timeStamp 0.000000
BaseParticle id 30 indSpecies 0 position 15.000000 0.000000 0.500000 orientation 1 0 0 0 velocity 0.000000 0.000000 0.000000 angularVelocity 0 0 0 force 0.000000 -0.000000 0.000000 torque 0 0 0 radius 0.500000 invMass 0.000000 timeStamp 0.000000
BaseParticle id 31 indSpecies 0 position 15.500000 0.866025 0.500000 orientation 1 0 0 0 velocity 0.000000 0.000000 0.000000 angularVelocity 0 0 0 force 0.000000 0.000000 0.000000 torque 0 0 0 radius 0.500000 invMass 0.000000 timeStamp 0.000000
BaseParticle id 32 indSpecies 0 position 16.000000 0.000000 0.500000 orientation 1 0 0 0 velocity 0.000000 0.000000 0.000000 angularVelocity 0 0 0 force 0.000000 -0.000000 0.000000 torque 0 0 0 radius 0.500000 invMass 0.000000 timeStamp 0.000000
BaseParticle id 33 indSpecies 0 position 16.500000 0.866025 0.500000 orientation 1 0 0 0 velocity 0.000000 0.000000 0.000000 angularVelocity 0 0 0 force 0.000000 0.000000 0.000000 torque 0 0 0 radius 0.500000 invMass 0.000000 timeStamp 0.000000
BaseParticle id 34 indSpecies 0 position 17.000000 0.000000 0.500000 orientation 1 0 0 0 velocity 0.000000 0.000000 0.000000 angularVelocity 0 0 0 force 0.000000 -0.000000 0.000000 torque 0 0 0 radius 0.500000 invMass 0.000000 timeStamp 0.000000
BaseParticle id 35 indSpecies 0 position 17.500000 0.866025 0.500000 orientation 1 0 0 0 velocity 0.000000 0.000000 0.000000 angularVelocity 0 0 0 force 0.000000 0.000000 0.000000 torque 0 0 0 radius 0.500000 invMass 0.000000 timeStamp 0.000000
BaseParticle id 36 indSpecies 0 position 18.000000 0.000000 0.500000 orientation 1 0 0 0 velocity 0.000000 0.000000 0.000000 angularVelocity 0 0 0 force 0.000000 -0.000000 0.000000 torque 0 0 0 radius 0.500000 invMass 0.000000 timeStamp 0.000000
BaseParticle id 37 indSpecies 0 position 18.500000 0.866025 0.500000 orientation 1 0 0 0 velocity 0.000000 0.000000 0.000000 angularVelocity 0 0 0 force 0.000000 0.000000 0.000000 torque 0 0 0 radius 0.500000 invMass 0.000000 timeStamp 0.000000
BaseParticle id 38 indSpecies 0 position 19.000000 0.000000 0.500000 orientation 1 0 0 0 velocity 0.000000 0.000000 0.000000 angularVelocity 0 0 0 force 0.000000 -0.000000 0.000000 torque 0 0 0 radius 0.500000 invMass 0.000000 timeStamp 0.000000
BaseParticle id 39 indSpecies 0 position 19.500000 0.866025 0.500000 orientation 1 0 0 0 velocity 0.000000 0.000000 0.000000 angularVelocity 0 0 0 force 0.000000 0.000000 0.000000 torque 0 0 0 radius 0.500000 invMass 0.000000 timeStamp 0.000000
BaseParticle id 40 indSpecies 0 position 0.000000 1.732050 0.500000 orientation 1 0 0 0 velocity 0.000000 0.000000 0.000000 angularVelocity 0 0 0 force 0.000000 0.000000 0.000000 torque 0 0 0 radius 0.500000 invMass 0.000000 timeStamp 0.000000
BaseParticle id 41 indSpecies 0 position 0.500000 2.598080 0.500000 orientation 1 0 0 0 velocity 0.000000 0.000000 0.000000 angularVelocity 0 0 0 force 0.000000 -0.000000 0.000000 torque 0 0 0 radius 0.500000 invMass 0.000000 timeStamp 0.000000
BaseParticle id 42 indSpecies 0 position 1.000000 1.732050 0.500000 orientation 1 0 0 0 velocity 0.000000 0.000000 0.000000 angularVelocity 0 0 0 force 0.000000 0.000000 0.000000 torque 0 0 0 radius 0.500000 invMass 0.000000 timeStamp 0.000000
BaseParticle id 43 indSpecies 0 position 1.500000 2.598080 0.500000 orientation 1 0 0 0 velocity 0.000000 0.000000 0.000000 angularVelocity 0 0 0 force 0.000000 -0.000000 0.000000 torque 0 0 0 radius 0.500000 invMass 0.000000 timeStamp 0.000000
BaseParticle id 44 indSpecies 0 position 2.000000 1.732050 0.500000 orientation 1 0 0 0 velocity 0.000000 0.000000 0.000000 angularVelocity 0 0 0 force 0.000000 0.000000 0.000000 torque 0 0 0 radius 0.500000 invMass 0.000000 timeStamp 0.000000
BaseParticle id 45 indSpecies 0 position 2.500000 2.598080 0.500000 orientation 1 0 0 0 velocity 0.000000 0.000000 0.000000 angularVelocity 0 0 0 force 0.000000 -0.000000 0.000000 torque 0 0 0 radius 0.500000 invMass 0.000000 timeStamp 0.000000
BaseParticle id 46 indSpecies 0 position 3.000000 1.732050 0.500000 orientation 1 0 0 0 velocity 0.000000 0.000000 0.000000 angularVelocity 0 0 0 force 0.000000 0.000000 0.000000 torque 0 0 0 radius 0.500000 invMass 0.000000 timeStamp 0.000000
BaseParticle id 47 indSpecies 0 position 3.500000 2.598080 0.500000 orientation 1 0 0 0 velocity 0.000000 0.000000 0.000000 angularVelocity 0 0 0 force 0.000000 -0.000000 0.000000 torque 0 0 0 radius 0.500000 invMass 0.000000 timeStamp 0.000000
BaseParticle id 48 indSpecies 0 position 4.000000 1.732050 0.500000 orientation 1 0 0 0 velocity 0.000000 0.000000 0.000000 angularVelocity 0 0 0 force 0.000000 0.000000 0.000000 torque 0 0 0 radius 0.500000 invMass 0.000000 timeStamp 0.000000
BaseParticle id 49 indSpecies 0 position 4.500000 2.598080 0.500000 orientation 1 0 0 0 velocity 0.000000 0.000000 0.000000 angularVelocity 0 0 0 force 0.000000 -0.000000 0.000000 torque 0 0 0 radius 0.500000 invMass 0.000000 timeStamp 0.000000
BaseParticle id 50 indSpecies 0 position 5.000000 1.732050 0.500000 orientation 1 0 0 0 velocity 0.000000 0.000000 0.000000 angularVelocity 0 0 0 force 0.000000 0.000000 0.000000 torque 0 0 0 radius 0.500000 invMass 0.000000 timeStamp 0.000000
BaseParticle id 51 indSpecies 0 position 5.500000 2.598080 0.500000 orientation 1 0 0 0 velocity 0.000000 0.000000 0.000000 angularVelocity 0 0 0 force 0.000000 -0.000000 0.000000 torque 0 0 0 radius 0.500000 invMass 0.000000 timeStamp 0.000000
BaseParticle id 52 indSpecies 0 position 6.000000 1.732050 0.500000 orientation 1 0 0 0 velocity 0.000000 0.000000 0.000000 angularVelocity 0 0 0 force 0.000000 0.000000 0.000000 torque 0 0 0 radius 0.500000 invMass 0.000000 timeStamp 0.000000
BaseParticle id 53 indSpecies 0 position 6.500000 2.598080 0.500000 orientation 1 0 0 0 velocity 0.000000 0.000000 0.000000 angularVelocity 0 0 0 force 0.000000 -0.000000 0.000000 torque 0 0 0 radius 0.500000 invMass 0.000000 timeStamp 0.000000
BaseParticle id 54 indSpecies 0 position 7.000000 1.732050 0.500000 orientation 1 0 0 0 velocity 0.000000 0.000000 0.000000 angularVelocity 0 0 0 force 0.000000 0.000000 0.000000 torque 0 0 0 radius 0.500000 invMass 0.000000 timeStamp 0.000000
BaseParticle id 55 indSpecies 0 position 7.500000 2.598080 0.500000 orientation 1 0 0 0 velocity 0.000000 0.000000 0.000000 angularVelocity 0 0 0 force 0.000000 -0.000000 0.000000 torque 0 0 0 radius 0.500000 invMass 0.000000 timeStamp 0.000000
BaseParticle id 56 indSpecies 0 position 8.000000 1.732050 0.500000 orientation 1 0 0 0 velocity 0.000000 0.000000 0.000000 angularVelocity 0 0 0 force 0.000000 0.000000 0.000000 torque 0 0 0 radius 0.500000 invMass 0.000000 timeStamp 0.000000
BaseParticle id 57 indSpecies 0 position 8.500000 2.598080 0.500000 orientation 1 0 0 0 velocity 0.000000 0.000000 0.000000 angularVelocity 0 0 0 force 0.000000 -0.000000 0.000000 torque 0 0 0 radius 0.500000 invMass 0.000000 timeStamp 0.000000
BaseParticle id 58 indSpecies 0 position 9.000000 1.732050 0.500000 orientation 1 0 0 0 velocity 0.000000 0.000000 0.000000 angularVelocity 0 0 0 force 0.000000 0.000000 0.000000 torque 0 0 0 radius 0.500000 invMass 0.000000 timeStamp 0.000000
BaseParticle id 59 indSpecies 0 position 9.500000 2.598080 0.500000 orientation 1 0 0 0 velocity 0.000000 0.000000 0.000000 angularVelocity 0 0 0 force 0.000000 -0.000000 0.000000 torque 0 0 0 radius 0.500000 invMass 0.000000 timeStamp 0.000000
BaseParticle id 60 indSpecies 0 position 10.000000 1.732050 0.500000 orientation 1 0 0 0 velocity 0.000000 0.000000 0.000000 angularVelocity 0 0 0 force 0.000000 0.000000 0.000000 torque 0 0 0 radius 0.500000 invMass 0.000000 timeStamp 0.000000
BaseParticle id 61 indSpecies 0 position 10.500000 2.598080 0.500000 orientation 1 0 0 0 velocity 0.000000 0.000000 0.000000 angularVelocity 0 0 0 force 0.000000 -0.000000 0.000000 torque 0 0 0 radius 0.500000 invMass 0.000000 timeStamp 0.000000
BaseParticle id 62 indSpecies 0 position 11.000000 1.732050 0.500000 orientation 1 0 0 0 velocity 0.000000 0.000000 0.000000 angularVelocity 0 0 0 force 0.000000 0.000000 0.000000 torque 0 0 0 radius 0.500000 invMass 0.000000 timeStamp 0.000000
BaseParticle id 63 indSpecies 0 position 11.500000 2.598080 0.500000 orientation 1 0 0 0 velocity 0.000000 0.000000 0.000000 angularVelocity 0 0 0 force 0.000000 -0.000000 0.000000 torque 0 0 0 radius 0.500000 invMass 0.000000 timeStamp 0.000000
BaseParticle id 64 indSpecies 0 position 12.000000 1.732050 0.500000 orientation 1 0 0 0 velocity 0.000000 0.000000 0.000000 angularVelocity 0 0 0 force 0.000000 0.000000 0.000000 torque 0 0 0 radius 0.500000 invMass 0.000000 timeStamp 0.000000
BaseParticle id 65 indSpecies 0 position 12.500000 2.598080 0.500000 orientation 1 0 0 0 velocity 0.000000 0.000000 0.000000 angularVelocity 0 0 0 force 0.000000 -0.000000 0.000000 torque 0 0 0 radius 0.500000 invMass 0.000000 timeStamp 0.000000
BaseParticle id 66 indSpecies 0 position 13.000000 1.732050 0.500000 orientation 1 0 0 0 velocity 0.000000 0.000000 0.000000 angularVelocity 0 0 0 force 0.000000 0.000000 0.000000 torque 0 0 0 radius 0.500000 invMass 0.000000 timeStamp 0.000000
BaseParticle id 67 indSpecies 0 position 13.500000 2.598080 0.500000 orientation 1 0 0 0 velocity 0.000000 0.000000 0.000000 angularVelocity 0 0 0 force 0.000000 -0.000000 0.000000 torque 0 0 0 radius 0.500000 invMass 0.000000 timeStamp 0.000000
BaseParticle id 68 indSpecies 0 position 14.000000 1.732050 0.500000 orientation 1 0 0 0 velocity 0.000000 0.000000 0.000000 angularVelocity 0 0 0 force 0.000000 0.000000 0.000000 torque 0 0 0 radius 0.500000 invMass 0.000000 timeStamp 0.000000
BaseParticle id 69 indSpecies 0 position 14.500000 2.598080 0.500000 orientation 1 0 0 0 velocity 0.000000 0.000000 0.000000 angularVelocity 0 0 0 force 0.000000 -0.000000 0.000000 torque 0 0 0 radius 0.500000 invMass 0.000000 timeStamp 0.000000
BaseParticle id 70 indSpecies 0 position 15.000000 1.732050 0.500000 orientation 1 0 0 0 velocity 0.000000 0.000000 0.000000 angularVelocity 0 0 0 force 0.000000 0.000000 0.000000 torque 0 0 0 radius 0.500000 invMass 0.000000 timeStamp 0.000000
BaseParticle id 71 indSpecies 0 position 15.500000 2.598080 0.500000 orientation 1 0 0 0 velocity 0.000000 0.000000 0.000000 angularVelocity 0 0 0 force 0.000000 -0.000000 0.000000 torque 0 0 0 radius 0.500000 invMass 0.000000 timeStamp 0.000000
BaseParticle id 72 indSpecies 0 position 16.000000 1.732050 0.500000 orientation 1 0 0 0 velocity 0.000000 0.000000 0.000000 angularVelocity 0 0 0 force 0.000000 0.000000 0.000000 torque 0 0 0 radius 0.500000 invMass 0.000000 timeStamp 0.000000
BaseParticle id 73 indSpecies 0 position 16.500000 2.598080 0.500000 orientation 1 0 0 0 velocity 0.000000 0.000000 0.000000 angularVelocity 0 0 0 force 0.000000 -0.000000 0.000000 torque 0 0 0 radius 0.500000 invMass 0.000000 timeStamp 0.000000
BaseParticle id 74 indSpecies 0 position 17.000000 1.732050 0.500000 orientation 1 0 0 0 velocity 0.000000 0.000000 0.000000 angularVelocity 0 0 0 force 0.000000 0.000000 0.000000 torque 0 0 0 radius 0.500000 invMass 0.000000 timeStamp 0.000000
BaseParticle id 75 indSpecies 0 position 17.500000 2.598080 0.500000 orientation 1 0 0 0 velocity 0.000000 0.000000 0.000000 angularVelocity 0 0 0 force 0.000000 -0.000000 0.000000 torque 0 0 0 radius 0.500000 invMass 0.000000 timeStamp 0.000000
BaseParticle id 76 indSpecies 0 position 18.000000 1.732050 0.500000 orientation 1 0 0 0 velocity 0.000000 0.000000 0.000000 angularVelocity 0 0 0 force 0.000000 0.000000 0.000000 torque 0 0 0 radius 0.500000 invMass 0.000000 timeStamp 0.000000
BaseParticle id 77 indSpecies 0 position 18.500000 2.598080 0.500000 orientation 1 0 0 0 velocity 0.000000 0.000000 0.000000 angularVelocity 0 0 0 force 0.000000 -0.000000 0.000000 torque 0 0 0 radius 0.500000 invMass 0.000000 timeStamp 0.000000
BaseParticle id 78 indSpecies 0 position 19.000000 1.732050 0.500000 orientation 1 0 0 0 velocity 0.000000 0.000000 0.000000 angularVelocity 0 0 0 force 0.000000 0.000000 0.000000 torque 0 0 0 radius 0.500000 invMass 0.000000 timeStamp 0.000000
BaseParticle id 79 indSpecies 0 position 19.500000 2.598080 0.500000 orientation 1 0 0 0 velocity 0.000000 0.000000 0.000000 angularVelocity 0 0 0 force 0.000000 -0.000000 0.000000 torque 0 0 0 radius 0.500000 invMass 0.000000 timeStamp 0.000000
BaseParticle id 80 indSpecies 0 position 0.000000 3.464100 0.500000 orientation 1 0 0 0 velocity 0.000000 0.000000 0.000000 angularVelocity 0 0 0 force 0.000000 0.000000 0.000000 torque 0 0 0 radius 0.500000 invMass 0.000000 timeStamp 0.000000
BaseParticle id 81 indSpecies 0 position 0.500000 4.330130 0.500000 orientation 1 0 0 0 velocity 0.000000 0.000000 0.000000 angularVelocity 0 0 0 force 0.000000 0.000000 0.000000 torque 0 0 0 radius 0.500000 invMass 0.000000 timeStamp 0.000000
BaseParticle id 82 indSpecies 0 position 1.000000 3.464100 0.500000 orientation 1 0 0 0 velocity 0.000000 0.000000 0.000000 angularVelocity 0 0 0 force 0.000000 0.000000 0.000000 torque 0 0 0 radius 0.500000 invMass 0.000000 timeStamp 0.000000
BaseParticle id 83 indSpecies 0 position 1.500000 4.330130 0.500000 orientation 1 0 0 0 velocity 0.000000 0.000000 0.000000 angularVelocity 0 0 0 force 0.000000 0.000000 0.000000 torque 0 0 0 radius 0.500000 invMass 0.000000 timeStamp 0.000000
BaseParticle id 84 indSpecies 0 position 2.000000 3.464100 0.500000 orientation 1 0 0 0 velocity 0.000000 0.000000 0.000000 angularVelocity 0 0 0 force 0.000000 0.000000 0.000000 torque 0 0 0 radius 0.500000 invMass 0.000000 timeStamp 0.000000
BaseParticle id 85 indSpecies 0 position 2.500000 4.330130 0.500000 orientation 1 0 0 0 velocity 0.000000 0.000000 0.000000 angularVelocity 0 0 0 force 0.000000 0.000000 0.000000 torque 0 0 0 radius 0.500000 invMass 0.000000 timeStamp 0.000000
BaseParticle id 86 indSpecies 0 position 3.000000 3.464100 0.500000 orientation 1 0 0 0 velocity 0.000000 0.000000 0.000000 angularVelocity 0 0 0 force 0.000000 0.000000 0.000000 torque 0 0 0 radius 0.500000 invMass 0.000000 timeStamp 0.000000
BaseParticle id 87 indSpecies 0 position 3.500000 4.330130 0.500000 orientation 1 0 0 0 velocity 0.000000 0.000000 0.000000 angularVelocity 0 0 0 force 0.000000 0.000000 0.000000 torque 0 0 0 radius 0.500000 invMass 0.000000 timeStamp 0.000000
BaseParticle id 88 indSpecies 0 position 4.000000 3.464100 0.500000 orientation 1 0 0 0 velocity 0.000000 0.000000 0.000000 angularVelocity 0 0 0 force 0.000000 0.000000 0.000000 torque 0 0 0 radius 0.500000 invMass 0.000000 timeStamp 0.000000
BaseParticle id 89 indSpecies 0 position 4.500000 4.330130 0.500000 orientation 1 0 0 0 velocity 0.000000 0.000000 0.000000 angularVelocity 0 0 0 force 0.000000 0.000000 0.000000 torque 0 0 0 radius 0.500000 invMass 0.000000 timeStamp 0.000000
BaseParticle id 90 indSpecies 0 position 5.000000 3.464100 0.500000 orientation 1 0 0 0 velocity 0.000000 0.000000 0.000000 angularVelocity 0 0 0 force 0.000000 0.000000 0.000000 torque 0 0 0 radius 0.500000 invMass 0.000000 timeStamp 0.000000
BaseParticle id 91 indSpecies 0 position 5.500000 4.330130 0.500000 orientation 1 0 0 0 velocity 0.000000 0.000000 0.000000 angularVelocity 0 0 0 force 0.000000 0.000000 0.000000 torque 0 0 0 radius 0.500000 invMass 0.000000 timeStamp 0.000000
BaseParticle id 92 indSpecies 0 position 6.000000 3.464100 0.500000 orientation 1 0 0 0 velocity 0.000000 0.000000 0.000000 angularVelocity 0 0 0 force 0.000000 0.000000 0.000000 torque 0 0 0 radius 0.500000 invMass 0.000000 timeStamp 0.000000
BaseParticle id 93 indSpecies 0 position 6.500000 4.330130 0.500000 orientation 1 0 0 0 velocity 0.000000 0.000000 0.000000 angularVelocity 0 0 0 force 0.000000 0.000000 0.000000 torque 0 0 0 radius 0.500000 invMass 0.000000 timeStamp 0.000000
BaseParticle id 94 indSpecies 0 position 7.000000 3.464100 0.500000 orientation 1 0 0 0 velocity 0.000000 0.000000 0.000000 angularVelocity 0 0 0 force 0.000000 0.000000 0.000000 torque 0 0 0 radius 0.500000 invMass 0.000000 timeStamp 0.000000
BaseParticle id 95 indSpecies 0 position 7.500000 4.330130 0.500000 orientation 1 0 0 0 velocity 0.000000 0.000000 0.000000 angularVelocity 0 0 0 force 0.000000 0.000000 0.000000 torque 0 0 0 radius 0.500000 invMass 0.000000 timeStamp 0.000000
BaseParticle id 96 indSpecies 0 position 8.000000 3.464100 0.500000 orientation 1 0 0 0 velocity 0.000000 0.000000 0.000000 angularVelocity 0 0 0 force 0.000000 0.000000 0.000000 torque 0 0 0 radius 0.500000 invMass 0.000000 timeStamp 0.000000
BaseParticle id 97 indSpecies 0 position 8.500000 4.330130 0.500000 orientation 1 0 0 0 velocity 0.000000 0.000000 0.000000 angularVelocity 0 0 0 force 0.000000 0.000000 0.000000 torque 0 0 0 radius 0.500000 invMass 0.000000 timeStamp 0.000000
BaseParticle id 98 indSpecies 0 position 9.000000 3.464100 0.500000 orientation 1 0 0 0 velocity 0.000000 0.000000 0.000000 angularVelocity 0 0 0 force 0.000000 0.000000 0.000000 torque 0 0 0 radius 0.500000 invMass 0.000000 timeStamp 0.000000
BaseParticle id 99 indSpecies 0 position 9.500000 4.330130 0.500000 orientation 1 0 0 0 velocity 0.000000 0.000000 0.000000 angularVelocity 0 0 0 force 0.000000 0.000000 0.000000 torque 0 0 0 radius 0.500000 invMass 0.000000 timeStamp 0.000000
BaseParticle id 100 indSpecies 0 position 10.000000 3.464100 0.500000 orientation 1 0 0 0 velocity 0.000000 0.000000 0.000000 angularVelocity 0 0 0 force 0.000000 0.000000 0.000000 torque 0 0 0 radius 0.500000 invMass 0.000000 timeStamp 0.000000
BaseParticle id 101 indSpecies 0 position 10.500000 4.330130 0.500000 orientation 1 0 0 0 velocity 0.000000 0.000000 0.000000 angularVelocity 0 0 0 force 0.000000 0.000000 0.000000 torque 0 0 0 radius 0.500000 invMass 0.000000 timeStamp 0.000000
BaseParticle id 102 indSpecies 0 position 11.000000 3.464100 0.500000 orientation 1 0 0 0 velocity 0.000000 0.000000 0.000000 angularVelocity 0 0 0 force 0.000000 0.000000 0.000000 torque 0 0 0 radius 0.500000 invMass 0.000000 timeStamp 0.000000
BaseParticle id 103 indSpecies 0 position 11.500000 4.330130 0.500000 orientation 1 0 0 0 velocity 0.000000 0.000000 0.000000 angularVelocity 0 0 0 force 0.000000 0.000000 0.000000 torque 0 0 0 radius 0.500000 invMass 0.000000 timeStamp 0.000000
BaseParticle id 104 indSpecies 0 position 12.000000 3.464100 0.500000 orientation 1 0 0 0 velocity 0.000000 0.000000 0.000000 angularVelocity 0 0 0 force 0.000000 0.000000 0.000000 torque 0 0 0 radius 0.500000 invMass 0.000000 timeStamp 0.000000
BaseParticle id 105 indSpecies 0 position 12.500000 4.330130 0.500000 orientation 1 0 0 0 velocity 0.000000 0.000000 0.000000 angularVelocity 0 0 0 force 0.000000 0.000000 0.000000 torque 0 0 0 radius 0.500000 invMass 0.000000 timeStamp 0.000000
BaseParticle id 106 indSpecies 0 position 13.000000 3.464100 0.500000 orientation 1 0 0 0 velocity 0.000000 0.000000 0.000000 angularVelocity 0 0 0 force 0.000000 0.000000 0.000000 torque 0 0 0 radius 0.500000 invMass 0.000000 timeStamp 0.000000
BaseParticle id 107 indSpecies 0 position 13.500000 4.330130 0.500000 orientation 1 0 0 0 velocity 0.000000 0.000000 0.000000 angularVelocity 0 0 0 force 0.000000 0.000000 0.000000 torque 0 0 0 radius 0.500000 invMass 0.000000 timeStamp 0.000000
BaseParticle id 108 indSpecies 0 position 14.000000 3.464100 0.500000 orientation 1 0 0 0 velocity 0.000000 0.000000 0.000000 angularVelocity 0 0 0 force 0.000000 0.000000 0.000000 torque 0 0 0 radius 0.500000 invMass 0.000000 timeStamp 0.000000
BaseParticle id 109 indSpecies 0 position 14.500000 4.330130 0.500000 orientation 1 0 0 0 velocity 0.000000 0.000000 0.000000 angularVelocity 0 0 0 force 0.000000 0.000000 0.000000 torque 0 0 0 radius 0.500000 invMass 0.000000 timeStamp 0.000000
BaseParticle id 110 indSpecies 0 position 15.000000 3.464100 0.500000 orientation 1 0 0 0 velocity 0.000000 0.000000 0.000000 angularVelocity 0 0 0 force 0.000000 0.000000 0.000000 torque 0 0 0 radius 0.500000 invMass 0.000000 timeStamp 0.000000
BaseParticle id 111 indSpecies 0 position 15.500000 4.330130 0.500000 orientation 1 0 0 0 velocity 0.000000 0.000000 0.000000 angularVelocity 0 0 0 force 0.000000 0.000000 0.000000 torque 0 0 0 radius 0.500000 invMass 0.000000 timeStamp 0.000000
BaseParticle id 112 indSpecies 0 position 16.000000 3.464100 0.500000 orientation 1 0 0 0 velocity 0.000000 0.000000 0.000000 angularVelocity 0 0 0 force 0.000000 0.000000 0.000000 torque 0 0 0 radius 0.500000 invMass 0.000000 timeStamp 0.000000
BaseParticle id 113 indSpecies 0 position 16.500000 4.330130 0.500000 orientation 1 0 0 0 velocity 0.000000 0.000000 0.000000 angularVelocity 0 0 0 force 0.000000 0.000000 0.000000 torque 0 0 0 radius 0.500000 invMass 0.000000 timeStamp 0.000000
BaseParticle id 114 indSpecies 0 position 17.000000 3.464100 0.500000 orientation 1 0 0 0 velocity 0.000000 0.000000 0.000000 angularVelocity 0 0 0 force 0.000000 0.000000 0.000000 torque 0 0 0 radius 0.500000 invMass 0.000000 timeStamp 0.000000