Walls 2
InfiniteWall id 0 position 0 0 0 orientation 0.707106781186547 0 0.707106781186547 0 velocity 0 0 0 angularVelocity 0 0 0
InfiniteWall id 1 position 0 0 20.5143 orientation 0.707106781186547 0 -0.707106781186547 0 velocity 0 0 0 angularVelocity 0 0 0
Boundaries 2
PeriodicBoundary id 0 normal 1 0 0 scaleFactor 1 distanceLeft 0 distanceRight 20 shift 20 0 0
PeriodicBoundary id 1 normal 0 1 0 scaleFactor 1 distanceLeft 0 distanceRight 10.3923 shift 0 10.3923 0
Particles 3480
BaseParticle id 0 position 0 0 0.5 velocity 0 0 0 angularVelocity 0 0 0 radius 0.5
BaseParticle id 1 position 0.5 0.866025 0.5 velocity 0 0 0 angularVelocity 0 0 0 radius 0.5
BaseParticle id 2 position 1 0 0.5 velocity 0 0 0 angularVelocity 0 0 0 radius 0.5
BaseParticle id 3 position 1.5 0.866025 0.5 velocity 0 0 0 angularVelocity 0 0 0 radius 0.5
BaseParticle id 4 position 2 0 0.5 velocity 0 0 0 angularVelocity 0 0 0 radius 0.5
BaseParticle id 5 position 2.5 0.866025 0.5 velocity 0 0 0 angularVelocity 0 0 0 radius 0.5
BaseParticle id 6 position 3 0 0.5 velocity 0 0 0 angularVelocity 0 0 0 radius 0.5
BaseParticle id 7 position 3.5 0.866025 0.5 velocity 0 0 0 angularVelocity 0 0 0 radius 0.5
BaseParticle id 8 position 4 0 0.5 velocity 0 0 0 angularVelocity 0 0 0 radius 0.5
BaseParticle id 9 position 4.5 0.866025 0.5 velocity 0 0 0 angularVelocity 0 0 0 radius 0.5
BaseParticle id 10 position 5 0 0.5 velocity 0 0 0 angularVelocity 0 0 0 radius 0.5
BaseParticle id 11 position 5.5 0.866025 0.5 velocity 0 0 0 angularVelocity 0 0 0 radius 0.5
BaseParticle id 12 position 6 0 0.5 velocity 0 0 0 angularVelocity 0 0 0 radius 0.5
BaseParticle id 13 position 6.5 0.866025 0.5 velocity 0 0 0 angularVelocity 0 0 0 radius 0.5
BaseParticle id 14 position 7 0 0.5 velocity 0 0 0 angularVelocity 0 0 0 radius 0.5
BaseParticle id 15 position 7.5 0.866025 0.5 velocity 0 0 0 angularVelocity 0 0 0 radius 0.5
BaseParticle id 16 position 8 0 0.5 velocity 0 0 0 angularVelocity 0 0 0 radius 0.5
BaseParticle id 17 position 8.5 0.866025 0.5 velocity 0 0 0 angularVelocity 0 0 0 radius 0.5
BaseParticle id 18 position 9 0 0.5 velocity 0 0 0 angularVelocity 0 0 0 radius 0.5
BaseParticle id 19 position 9.5 0.866025 0.5 velocity 0 0 0 angularVelocity 0 0 0 radius 0.5
BaseParticle id 20 position 10 0 0.5 velocity 0 0 0 angularVelocity 0 0 0 radius 0.5
BaseParticle id 21 position 10.5 0.866025 0.5 velocity 0 0 0 angularVelocity 0 0 0 radius 0.5
BaseParticle id 22 position 11 0 0.5 velocity 0 0 0 angularVelocity 0 0 0 radius 0.5
BaseParticle id 23 position 11.5 0.866025 0.5 velocity 0 0 0 angularVelocity 0 0 0 radius 0.5
BaseParticle id 24 position 12 0 0.5 velocity 0 0 0 angularVelocity 0 0 0 radius 0.5
BaseParticle id 25 position 12.5 0.866025 0.5 velocity 0 0 0 angularVelocity 0 0 0 radius 0.5
BaseParticle id 26 position 13 0 0.5 velocity 0 0 0 angularVelocity 0 0 0 radius 0.5
BaseParticle id 27 position 13.5 0.866025 0.5 velocity 0 0 0 angularVelocity 0 0 0 radius 0.5
BaseParticle id 28 position 14 0 0.5 velocity 0 0 0 angularVelocity 0 0 0 radius 0.5
BaseParticle id 29 position 14.5 0.866025 0.5 velocity 0 0 0 angularVelocity 0 0 0 radius 0.5
BaseParticle id 30 position 15 0 0.5 velocity 0 0 0 angularVelocity 0 0 0 radius 0.5
BaseParticle id 31 position 15.5 0.866025 0.5 velocity 0 0 0 angularVelocity 0 0 0 radius 0.5
BaseParticle id 32 position 16 0 0.5 velocity 0 0 0 angularVelocity 0 0 0 radius 0.5
BaseParticle id 33 position 16.5 0.866025 0.5 velocity 0 0 0 angularVelocity 0 0 0 radius 0.5
BaseParticle id 34 position 17 0 0.5 velocity 0 0 0 angularVelocity 0 0 0 radius 0.5
BaseParticle id 35 position 17.5 0.866025 0.5 velocity 0 0 0 angularVelocity 0 0 0 radius 0.5
BaseParticle id 36 position 18 0 0.5 velocity 0 0 0 angularVelocity 0 0 0 radius 0.5
BaseParticle id 37 position 18.5 0.866025 0.5 velocity 0 0 0 angularVelocity 0 0 0 radius 0.5
BaseParticle id 38 position 19 0 0.5 velocity 0 0 0 angularVelocity 0 0 0 radius 0.5
BaseParticle id 39 position 19.5 0.866025 0.5 velocity 0 0 0 angularVelocity 0 0 0 radius 0.5
BaseParticle id 40 position 0 1.73205 0.5 velocity 0 0 0 angularVelocity 0 0 0 radius 0.5
BaseParticle id 41 position 0.5 2.59808 0.5 velocity 0 0 0 angularVelocity 0 0 0 radius 0.5
BaseParticle id 42 position 1 1.73205 0.5 velocity 0 0 0 angularVelocity 0 0 0 radius 0.5
BaseParticle id 43 position 1.5 2.59808 0.5 velocity 0 0 0 angularVelocity 0 0 0 radius 0.5
BaseParticle id 44 position 2 1.73205 0.5 velocity 0 0 0 angularVelocity 0 0 0 radius 0.5
BaseParticle id 45 position 2.5 2.59808 0.5 velocity 0 0 0 angularVelocity 0 0 0 radius 0.5
BaseParticle id 46 position 3 1.73205 0.5 velocity 0 0 0 angularVelocity 0 0 0 radius 0.5
BaseParticle id 47 position 3.5 2.59808 0.5 velocity 0 0 0 angularVelocity 0 0 0 radius 0.5
BaseParticle id 48 position 4 1.73205 0.5 velocity 0 0 0 angularVelocity 0 0 0 radius 0.5
BaseParticle id 49 position 4.5 2.59808 0.5 velocity 0 0 0 angularVelocity 0 0 0 radius 0.5
BaseParticle id 50 position 5 1.73205 0.5 velocity 0 0 0 angularVelocity 0 0 0 radius 0.5
BaseParticle id 51 position 5.5 2.59808 0.5 velocity 0 0 0 angularVelocity 0 0 0 radius 0.5
BaseParticle id 52 position 6 1.73205 0.5 velocity 0 0 0 angularVelocity 0 0 0 radius 0.5
BaseParticle id 53 position 6.5 2.59808 0.5 velocity 0 0 0 angularVelocity 0 0 0 radius 0.5
BaseParticle id 54 position 7 1.73205 0.5 velocity 0 0 0 angularVelocity 0 0 0 radius 0.5
BaseParticle id 55 position 7.5 2.59808 0.5 velocity 0 0 0 angularVelocity 0 0 0 radius 0.5
BaseParticle id 56 position 8 1.73205 0.5 velocity 0 0 0 angularVelocity 0 0 0 radius 0.5
BaseParticle id 57 position 8.5 2.59808 0.5 velocity 0 0 0 angularVelocity 0 0 0 radius 0.5
BaseParticle id 58 position 9 1.73205 0.5 velocity 0 0 0 angularVelocity 0 0 0 radius 0.5
BaseParticle id 59 position 9.5 2.59808 0.5 velocity 0 0 0 angularVelocity 0 0 0 radius 0.5
BaseParticle id 60 position 10 1.73205 0.5 velocity 0 0 0 angularVelocity 0 0 0 radius 0.5
BaseParticle id 61 position 10.5 2.59808 0.5 velocity 0 0 0 angularVelocity 0 0 0 radius 0.5
BaseParticle id 62 position 11 1.73205 0.5 velocity 0 0 0 angularVelocity 0 0 0 radius 0.5
BaseParticle id 63 position 11.5 2.59808 0.5 velocity 0 0 0 angularVelocity 0 0 0 radius 0.5
BaseParticle id 64 position 12 1.73205 0.5 velocity 0 0 0 angularVelocity 0 0 0 radius 0.5
BaseParticle id 65 position 12.5 2.59808 0.5 velocity 0 0 0 angularVelocity 0 0 0 radius 0.5
BaseParticle id 66 position 13 1.73205 0.5 velocity 0 0 0 angularVelocity 0 0 0 radius 0.5
BaseParticle id 67 position 13.5 2.59808 0.5 velocity 0 0 0 angularVelocity 0 0 0 radius 0.5
BaseParticle id 68 position 14 1.73205 0.5 velocity 0 0 0 angularVelocity 0 0 0 radius 0.5
BaseParticle id 69 position 14.5 2.59808 0.5 velocity 0 0 0 angularVelocity 0 0 0 radius 0.5
BaseParticle id 70 position 15 1.73205 0.5 velocity 0 0 0 angularVelocity 0 0 0 radius 0.5
BaseParticle id 71 position 15.5 2.59808 0.5 velocity 0 0 0 angularVelocity 0 0 0 radius 0.5
BaseParticle id 72 position 16 1.73205 0.5 velocity 0 0 0 angularVelocity 0 0 0 radius 0.5
BaseParticle id 73 position 16.5 2.59808 0.5 velocity 0 0 0 angularVelocity 0 0 0 radius 0.5
BaseParticle id 74 position 17 1.73205 0.5 velocity 0 0 0 angularVelocity 0 0 0 radius 0.5
BaseParticle id 75 position 17.5 2.59808 0.5 velocity 0 0 0 angularVelocity 0 0 0 radius 0.5
BaseParticle id 76 position 18 1.73205 0.5 velocity 0 0 0 angularVelocity 0 0 0 radius 0.5
BaseParticle id 77 position 18.5 2.59808 0.5 velocity 0 0 0 angularVelocity 0 0 0 radius 0.5
BaseParticle id 78 position 19 1.73205 0.5 velocity 0 0 0 angularVelocity 0 0 0 radius 0.5
BaseParticle id 79 position 19.5 2.59808 0.5 velocity 0 0 0 angularVelocity 0 0 0 radius 0.5
BaseParticle id 80 position 0 3.4641 0.5 velocity 0 0 0 angularVelocity 0 0 0 radius 0.5
BaseParticle id 81 position 0.5 4.33013 0.5 velocity 0 0 0 angularVelocity 0 0 0 radius 0.5
BaseParticle id 82 position 1 3.4641 0.5 velocity 0 0 0 angularVelocity 0 0 0 radius 0.5
BaseParticle id 83 position 1.5 4.33013 0.5 velocity 0 0 0 angularVelocity 0 0 0 radius 0.5
BaseParticle id 84 position 2 3.4641 0.5 velocity 0 0 0 angularVelocity 0 0 0 radius 0.5
BaseParticle id 85 position 2.5 4.33013 0.5 velocity 0 0 0 angularVelocity 0 0 0 radius 0.5
BaseParticle id 86 position 3 3.4641 0.5 velocity 0 0 0 angularVelocity 0 0 0 radius 0.5
BaseParticle id 87 position 3.5 4.33013 0.5 velocity 0 0 0 angularVelocity 0 0 0 radius 0.5
BaseParticle id 88 position 4 3.4641 0.5 velocity 0 0 0 angularVelocity 0 0 0 radius 0.5
BaseParticle id 89 position 4.5 4.33013 0.5 velocity 0 0 0 angularVelocity 0 0 0 radius 0.5
BaseParticle id 90 position 5 3.4641 0.5 velocity 0 0 0 angularVelocity 0 0 0 radius 0.5
BaseParticle id 91 position 5.5 4.33013 0.5 velocity 0 0 0 angularVelocity 0 0 0 radius 0.5
BaseParticle id 92 position 6 3.4641 0.5 velocity 0 0 0 angularVelocity 0 0 0 radius 0.5
BaseParticle id 93 position 6.5 4.33013 0.5 velocity 0 0 0 angularVelocity 0 0 0 radius 0.5
BaseParticle id 94 position 7 3.4641 0.5 velocity 0 0 0 angularVelocity 0 0 0 radius 0.5
BaseParticle id 95 position 7.5 4.33013 0.5 velocity 0 0 0 angularVelocity 0 0 0 radius 0.5
BaseParticle id 96 position 8 3.4641 0.5 velocity 0 0 0 angularVelocity 0 0 0 radius 0.5
BaseParticle id 97 position 8.5 4.33013 0.5 velocity 0 0 0 angularVelocity 0 0 0 radius 0.5
BaseParticle id 98 position 9 3.4641 0.5 velocity 0 0 0 angularVelocity 0 0 0 radius 0.5
BaseParticle id 99 position 9.5 4.33013 0.5 velocity 0 0 0 angularVelocity 0 0 0 radius 0.5
BaseParticle id 100 position 10 3.4641 0.5 velocity 0 0 0 angularVelocity 0 0 0 radius 0.5
BaseParticle id 101 position 10.5 4.33013 0.5 velocity 0 0 0 angularVelocity 0 0 0 radius 0.5
BaseParticle id 102 position 11 3.4641 0.5 velocity 0 0 0 angularVelocity 0 0 0 radius 0.5
BaseParticle id 103 position 11.5 4.33013 0.5 velocity 0 0 0 angularVelocity 0 0 0 radius 0.5
BaseParticle id 104 position 12 3.4641 0.5 velocity 0 0 0 angularVelocity 0 0 0 radius 0.5
BaseParticle id 105 position 12.5 4.33013 0.5 velocity 0 0 0 angularVelocity 0 0 0 radius 0.5
BaseParticle id 106 position 13 3.4641 0.5 velocity 0 0 0 angularVelocity 0 0 0 radius 0.5
BaseParticle id 107 position 13.5 4.33013 0.5 velocity 0 0 0 angularVelocity 0 0 0 radius 0.5
BaseParticle id 108 position 14 3.4641 0.5 velocity 0 0 0 angularVelocity 0 0 0 radius 0.5
BaseParticle id 109 position 14.5 4.33013 0.5 velocity 0 0 0 angularVelocity 0 0 0 radius 0.5
BaseParticle id 110 position 15 3.4641 0.5 velocity 0 0 0 angularVelocity 0 0 0 radius 0.5
BaseParticle id 111 position 15.5 4.33013 0.5 velocity 0 0 0 angularVelocity 0 0 0 radius 0.5
BaseParticle id 112 position 16 3.4641 0.5 velocity 0 0 0 angularVelocity 0 0 0 radius 0.5
BaseParticle id 113 position 16.5 4.33013 0.5 velocity 0 0 0 angularVelocity 0 0 0 radius 0.5
BaseParticle id 114 position 17 3.4641 0.5 velocity 0 0 0 angularVelocity 0 0 0 radius 0.5
BaseParticle id 115 position 17.5 4.33013 0.5 velocity 0 0 0 angularVelocity 0 0 0 radius 0.5
BaseParticle id 116 position 18 3.4641 0.5 velocity 0 0 0 angularVelocity 0 0 0 radius 0.5
BaseParticle id 117 position 18.5 4.33013 0.5 velocity 0 0 0 angularVelocity 0 0 0 radius 0.5
BaseParticle id 118 position 19 3.4641 0.5 velocity 0 0 0 angularVelocity 0 0 0 radius 0.5
BaseParticle id 119 position 19.5 4.33013 0.5 velocity 0 0 0 angularVelocity 0 0 0 radius 0.5
BaseParticle id 120 position 0 5.19615 0.5 velocity 0 0 0 angularVelocity 0 0 0 radius 0.5
BaseParticle id 121 position 0.5 6.06218 0.5 velocity 0 0 0 angularVelocity 0 0 0 radius 0.5
BaseParticle id 122 position 1 5.19615 0.5 velocity 0 0 0 angularVelocity 0 0 0 radius 0.5
BaseParticle id 123 position 1.5 6.06218 0.5 velocity 0 0 0 angularVelocity 0 0 0 radius 0.5
BaseParticle id 124 position 2 5.19615 0.5 velocity 0 0 0 angularVelocity 0 0 0 radius 0.5
BaseParticle id 125 position 2.5 6.06218 0.5 velocity 0 0 0 angularVelocity 0 0 0 radius 0.5
BaseParticle id 126 position 3 5.19615 0.5 velocity 0 0 0 angularVelocity 0 0 0 radius 0.5
BaseParticle id 127 position 3.5 6.06218 0.5 velocity 0 0 0 angularVelocity 0 0 0 radius 0.5
BaseParticle id 128 position 4 5.19615 0.5 velocity 0 0 0 angularVelocity 0 0 0 radius 0.5
BaseParticle id 129 position 4.5 6.06218 0.5 velocity 0 0 0 angularVelocity 0 0 0 radius 0.5
BaseParticle id 130 position 5 5.19615 0.5 velocity 0 0 0 angularVelocity 0 0 0 radius 0.5
BaseParticle id 131 position 5.5 6.06218 0.5 velocity 0 0 0 angularVelocity 0 0 0 radius 0.5
BaseParticle id 132 position 6 5.19615 0.5 velocity 0 0 0 angularVelocity 0 0 0 radius 0.5
BaseParticle id 133 position 6.5 6.06218 0.5 velocity 0 0 0 angularVelocity 0 0 0 radius 0.5
BaseParticle id 134 position 7 5.19615 0.5 velocity 0 0 0 angularVelocity 0 0 0 radius 0.5
BaseParticle id 135 position 7.5 6.06218 0.5 velocity 0 0 0 angularVelocity 0 0 0 radius 0.5
BaseParticle id 136 position 8 5.19615 0.5 velocity 0 0 0 angularVelocity 0 0 0 radius 0.5
BaseParticle id 137 position 8.5 6.06218 0.5 velocity 0 0 0 angularVelocity 0 0 0 radius 0.5
BaseParticle id 138 position 9 5.19615 0.5 velocity 0 0 0 angularVelocity 0 0 0 radius 0.5
BaseParticle id 139 position 9.5 6.06218 0.5 velocity 0 0 0 angularVelocity 0 0 0 radius 0.5
BaseParticle id 140 position 10 5.19615 0.5 velocity 0 0 0 angularVelocity 0 0 0 radius 0.5
BaseParticle id 141 position 10.5 6.06218 0.5 velocity 0 0 0 angularVelocity 0 0 0 radius 0.5
BaseParticle id 142 position 11 5.19615 0.5 velocity 0 0 0 angularVelocity 0 0 0 radius 0.5
BaseParticle id 143 position 11.5 6.06218 0.5 velocity 0 0 0 angularVelocity 0 0 0 radius 0.5
BaseParticle id 144 position 12 5.19615 0.5 velocity 0 0 0 angularVelocity 0 0 0 radius 0.5
BaseParticle id 145 position 12.5 6.06218 0.5 velocity 0 0 0 angularVelocity 0 0 0 radius 0.5
BaseParticle id 146 position 13 5.19615 0.5 velocity 0 0 0 angularVelocity 0 0 0 radius 0.5
BaseParticle id 147 position 13.5 6.06218 0.5 velocity 0 0 0 angularVelocity 0 0 0 radius 0.5
BaseParticle id 148 position 14 5.19615 0.5 velocity 0 0 0 angularVelocity 0 0 0 radius 0.5
BaseParticle id 149 position 14.5 6.06218 0.5 velocity 0 0 0 angularVelocity 0 0 0 radius 0.5
BaseParticle id 150 position 15 5.19615 0.5 velocity 0 0 0 angularVelocity 0 0 0 radius 0.5
BaseParticle id 151 position 15.5 6.06218 0.5 velocity 0 0 0 angularVelocity 0 0 0 radius 0.5
BaseParticle id 152 position 16 5.19615 0.5 velocity 0 0 0 angularVelocity 0 0 0 radius 0.5
BaseParticle id 153 position 16.5 6.06218 0.5 velocity 0 0 0 angularVelocity 0 0 0 radius 0.5
BaseParticle id 154 position 17 5.19615 0.5 velocity 0 0 0 angularVelocity 0 0 0 radius 0.5
BaseParticle id 155 position 17.5 6.06218 0.5 velocity 0 0 0 angularVelocity 0 0 0 radius 0.5
BaseParticle id 156 position 18 5.19615 0.5 velocity 0 0 0 angularVelocity 0 0 0 radius 0.5
BaseParticle id 157 position 18.5 6.06218 0.5 velocity 0 0 0 angularVelocity 0 0 0 radius 0.5
BaseParticle id 158 position 19 5.19615 0.5 velocity 0 0 0 angularVelocity 0 0 0 radius 0.5
BaseParticle id 159 position 19.5 6.06218 0.5 velocity 0 0 0 angularVelocity 0 0 0 radius 0.5
BaseParticle id 160 position 0 6.9282 0.5 velocity 0 0 0 angularVelocity 0 0 0 radius 0.5
BaseParticle id 161 position 0.5 7.79423 0.5 velocity 0 0 0 angularVelocity 0 0 0 radius 0.5
BaseParticle id 162 position 1 6.9282 0.5 velocity 0 0 0 angularVelocity 0 0 0 radius 0.5
BaseParticle id 163 position 1.5 7.79423 0.5 velocity 0 0 0 angularVelocity 0 0 0 radius 0.5
BaseParticle id 164 position 2 6.9282 0.5 velocity 0 0 0 angularVelocity 0 0 0 radius 0.5
BaseParticle id 165 position 2.5 7.79423 0.5 velocity 0 0 0 angularVelocity 0 0 0 radius 0.5
BaseParticle id 166 position 3 6.9282 0.5 velocity 0 0 0 angularVelocity 0 0 0 radius 0.5
BaseParticle id 167 position 3.5 7.79423 0.5 velocity 0 0 0 angularVelocity 0 0 0 radius 0.5
BaseParticle id 168 position 4 6.9282 0.5 velocity 0 0 0 angularVelocity 0 0 0 radius 0.5
BaseParticle id 169 position 4.5 7.79423 0.5 velocity 0 0 0 angularVelocity 0 0 0 radius 0.5
BaseParticle id 170 position 5 6.9282 0.5 velocity 0 0 0 angularVelocity 0 0 0 radius 0.5
BaseParticle id 171 position 5.5 7.79423 0.5 velocity 0 0 0 angularVelocity 0 0 0 radius 0.5
BaseParticle id 172 position 6 6.9282 0.5 velocity 0 0 0 angularVelocity 0 0 0 radius 0.5
BaseParticle id 173 position 6.5 7.79423 0.5 velocity 0 0 0 angularVelocity 0 0 0 radius 0.5
BaseParticle id 174 position 7 6.9282 0.5 velocity 0 0 0 angularVelocity 0 0 0 radius 0.5
BaseParticle id 175 position 7.5 7.79423 0.5 velocity 0 0 0 angularVelocity 0 0 0 radius 0.5
BaseParticle id 176 position 8 6.9282 0.5 velocity 0 0 0 angularVelocity 0 0 0 radius 0.5
BaseParticle id 177 position 8.5 7.79423 0.5 velocity 0 0 0 angularVelocity 0 0 0 radius 0.5
BaseParticle id 178 position 9 6.9282 0.5 velocity 0 0 0 angularVelocity 0 0 0 radius 0.5
BaseParticle id 179 position 9.5 7.79423 0.5 velocity 0 0 0 angularVelocity 0 0 0 radius 0.5
BaseParticle id 180 position 10 6.9282 0.5 velocity 0 0 0 angularVelocity 0 0 0 radius 0.5
BaseParticle id 181 position 10.5 7.79423 0.5 velocity 0 0 0 angularVelocity 0 0 0 radius 0.5
BaseParticle id 182 position 11 6.9282 0.5 velocity 0 0 0 angularVelocity 0 0 0 radius 0.5
BaseParticle id 183 position 11.5 7.79423 0.5 velocity 0 0 0 angularVelocity 0 0 0 radius 0.5
BaseParticle id 184 position 12 6.9282 0.5 velocity 0 0 0 angularVelocity 0 0 0 radius 0.5
BaseParticle id 185 position 12.5 7.79423 0.5 velocity 0 0 0 angularVelocity 0 0 0 radius 0.5
BaseParticle id 186 position 13 6.9282 0.5 velocity 0 0 0 angularVelocity 0 0 0 radius 0.5
BaseParticle id 187 position 13.5 7.79423 0.5 velocity 0 0 0 angularVelocity 0 0 0 radius 0.5
BaseParticle id 188 position 14 6.9282 0.5 velocity 0 0 0 angularVelocity 0 0 0 radius 0.5
BaseParticle id 189 position 14.5 7.79423 0.5 velocity 0 0 0 angularVelocity 0 0 0 radius 0.5
BaseParticle id 190 position 15 6.9282 0.5 velocity 0 0 0 angularVelocity 0 0 0 radius 0.5
BaseParticle id 191 position 15.5 7.79423 0.5 velocity 0 0 0 angularVelocity 0 0 0 radius 0.5
BaseParticle id 192 position 16 6.9282 0.5 velocity 0 0 0 angularVelocity 0 0 0 radius 0.5
BaseParticle id 193 position 16.5 7.79423 0.5 velocity 0 0 0 angularVelocity 0 0 0 radius 0.5
BaseParticle id 194 position 17 6.9282 0.5 velocity 0 0 0 angularVelocity 0 0 0 radius 0.5
BaseParticle id 195 position 17.5 7.79423 0.5 velocity 0 0 0 angularVelocity 0 0 0 radius 0.5
BaseParticle id 196 position 18 6.9282 0.5 velocity 0 0 0 angularVelocity 0 0 0 radius 0.5
BaseParticle id 197 position 18.5 7.79423 0.5 velocity 0 0 0 angularVelocity 0 0 0 radius 0.5
BaseParticle id 198 position 19 6.9282 0.5 velocity 0 0 0 angularVelocity 0 0 0 radius 0.5
BaseParticle id 199 position 19.5 7.79423 0.5 velocity 0 0 0 angularVelocity 0 0 0 radius 0.5
BaseParticle id 200 position 0 8.66025 0.5 velocity 0 0 0 angularVelocity 0 0 0 radius 0.5
BaseParticle id 201 position 0.5 9.52628 0.5 velocity 0 0 0 angularVelocity 0 0 0 radius 0.5
BaseParticle id 202 position 1 8.66025 0.5 velocity 0 0 0 angularVelocity 0 0 0 radius 0.5
BaseParticle id 203 position 1.5 9.52628 0.5 velocity 0 0 0 angularVelocity 0 0 0 radius 0.5
BaseParticle id 204 position 2 8.66025 0.5 velocity 0 0 0 angularVelocity 0 0 0 radius 0.5
BaseParticle id 205 position 2.5 9.52628 0.5 velocity 0 0 0 angularVelocity 0 0 0 radius 0.5
BaseParticle id 206 position 3 8.66025 0.5 velocity 0 0 0 angularVelocity 0 0 0 radius 0.5
BaseParticle id 207 position 3.5 9.52628 0.5 velocity 0 0 0 angularVelocity 0 0 0 radius 0.5
BaseParticle id 208 position 4 8.66025 0.5 velocity 0 0 0 angularVelocity 0 0 0 radius 0.5
BaseParticle id 209 position 4.5 9.52628 0.5 velocity 0 0 0 angularVelocity 0 0 0 radius 0.5
BaseParticle id 210 position 5 8.66025 0.5 velocity 0 0 0 angularVelocity 0 0 0 radius 0.5
BaseParticle id 211 position 5.5 9.52628 0.5 velocity 0 0 0 angularVelocity 0 0 0 radius 0.5
BaseParticle id 212 position 6 8.66025 0.5 velocity 0 0 0 angularVelocity 0 0 0 radius 0.5
BaseParticle id 213 position 6.5 9.52628 0.5 velocity 0 0 0 angularVelocity 0 0 0 radius 0.5
BaseParticle id 214 position 7 8.66025 0.5 velocity 0 0 0 angularVelocity 0 0 0 radius 0.5
BaseParticle id 215 position 7.5 9.52628 0.5 velocity 0 0 0 angularVelocity 0 0 0 radius 0.5
BaseParticle id 216 position 8 8.66025 0.5 velocity 0 0 0 angularVelocity 0 0 0 radius 0.5
BaseParticle id 217 position 8.5 9.52628 0.5 velocity 0 0 0 angularVelocity 0 0 0 radius 0.5
BaseParticle id 218 position 9 8.66025 0.5 velocity 0 0 0 angularVelocity 0 0 0 radius 0.5
BaseParticle id 219 position 9.5 9.52628 0.5 velocity 0 0 0 angularVelocity 0 0 0 radius 0.5
BaseParticle id 220 position 10 8.66025 0.5 velocity 0 0 0 angularVelocity 0 0 0 radius 0.5
BaseParticle id 221 position 10.5 9.52628 0.5 velocity 0 0 0 angularVelocity 0 0 0 radius 0.5
BaseParticle id 222 position 11 8.66025 0.5 velocity 0 0 0 angularVelocity 0 0 0 radius 0.5
BaseParticle id 223 position 11.5 9.52628 0.5 velocity 0 0 0 angularVelocity 0 0 0 radius 0.5
BaseParticle id 224 position 12 8.66025 0.5 velocity 0 0 0 angularVelocity 0 0 0 radius 0.5
BaseParticle id 225 position 12.5 9.52628 0.5 velocity 0 0 0 angularVelocity 0 0 0 radius 0.5
BaseParticle id 226 position 13 8.66025 0.5 velocity 0 0 0 angularVelocity 0 0 0 radius 0.5
BaseParticle id 227 position 13.5 9.52628 0.5 velocity 0 0 0 angularVelocity 0 0 0 radius 0.5
BaseParticle id 228 position 14 8.66025 0.5 velocity 0 0 0 angularVelocity 0 0 0 radius 0.5
BaseParticle id 229 position 14.5 9.52628 0.5 velocity 0 0 0 angularVelocity 0 0 0 radius 0.5
BaseParticle id 230 position 15 8.66025 0.5 velocity 0 0 0 angularVelocity 0 0 0 radius 0.5
BaseParticle id 231 position 15.5 9.52628 0.5 velocity 0 0 0 angularVelocity 0 0 0 radius 0.5
BaseParticle id 232 position 16 8.66025 0.5 velocity 0 0 0 angularVelocity 0 0 0 radius 0.5
BaseParticle id 233 position 16.5 9.52628 0.5 velocity 0 0 0 angularVelocity 0 0 0 radius 0.5
BaseParticle id 234 position 17 8.66025 0.5 velocity 0 0 0 angularVelocity 0 0 0 radius 0.5
BaseParticle id 235 position 17.5 9.52628 0.5 velocity 0 0 0 angularVelocity 0 0 0 radius 0.5
BaseParticle id 236 position 18 8.66025 0.5 velocity 0 0 0 angularVelocity 0 0 0 radius 0.5
BaseParticle id 237 position 18.5 9.52628 0.5 velocity 0 0 0 angularVelocity 0 0 0 radius 0.5
BaseParticle id 238 position 19 8.66025 0.5 velocity 0 0 0 angularVelocity 0 0 0 radius 0.5
BaseParticle id 239 position 19.5 9.52628 0.5 velocity 0 0 0 angularVelocity 0 0 0 radius 0.5
BaseParticle id 240 position 0.5 1.44338 20.0143 velocity 0 0 0 angularVelocity 0 0 0 radius 0.5
BaseParticle id 241 position 0 0.57735 20.0143 velocity 0 0 0 angularVelocity 0 0 0 radius 0.5
BaseParticle id 242 position 1.5 1.44338 20.0143 velocity 0 0 0 angularVelocity 0 0 0 radius 0.5
BaseParticle id 243 position 1 0.57735 20.0143 velocity 0 0 0 angularVelocity 0 0 0 radius 0.5
BaseParticle id 244 position 2.5 1.44338 20.0143 velocity 0 0 0 angularVelocity 0 0 0 radius 0.5
BaseParticle id 245 position 2 0.57735 20.0143 velocity 0 0 0 angularVelocity 0 0 0 radius 0.5
BaseParticle id 246 position 3.5 1.44338 20.0143 velocity 0 0 0 angularVelocity 0 0 0 radius 0.5
BaseParticle id 247 position 3 0.57735 20.0143 velocity 0 0 0 angularVelocity 0 0 0 radius 0.5
BaseParticle id 248 position 4.5 1.44338 20.0143 velocity 0 0 0 angularVelocity 0 0 0 radius 0.5
BaseParticle id 249 position 4 0.57735 20.0143 velocity 0 0 0 angularVelocity 0 0 0 radius 0.5
BaseParticle id 250 position 5.5 1.44338 20.0143 velocity 0 0 0 angularVelocity 0 0 0 radius 0.5
BaseParticle id 251 position 5 0.57735 20.0143 velocity 0 0 0 angularVelocity 0 0 0 radius 0.5
BaseParticle id 252 position 6.5 1.44338 20.0143 velocity 0 0 0 angularVelocity 0 0 0 radius 0.5
BaseParticle id 253 position 6 0.57735 20.0143 velocity 0 0 0 angularVelocity 0 0 0 radius 0.5
BaseParticle id 254 position 7.5 1.44338 20.0143 velocity 0 0 0 angularVelocity 0 0 0 radius 0.5
BaseParticle id 255 position 7 0.57735 20.0143 velocity 0 0 0 angularVelocity 0 0 0 radius 0.5
BaseParticle id 256 position 8.5 1.44338 20.0143 velocity 0 0 0 angularVelocity 0 0 0 radius 0.5
BaseParticle id 257 position 8 0.57735 20.0143 velocity 0 0 0 angularVelocity 0 0 0 radius 0.5
BaseParticle id 258 position 9.5 1.44338 20.0143 velocity 0 0 0 angularVelocity 0 0 0 radius 0.5
BaseParticle id 259 position 9 0.57735 20.0143 velocity 0 0 0 angularVelocity 0 0 0 radius 0.5
BaseParticle id 260 position 10.5 1.44338 20.0143 velocity 0 0 0 angularVelocity 0 0 0 radius 0.5
BaseParticle id 261 position 10 0.57735 20.0143 velocity 0 0 0 angularVelocity 0 0 0 radius 0.5
BaseParticle id 262 position 11.5 1.44338 20.0143 velocity 0 0 0 angularVelocity 0 0 0 radius 0.5
BaseParticle id 263 position 11 0.57735 20.0143 velocity 0 0 0 angularVelocity 0 0 0 radius 0.5
BaseParticle id 264 position 12.5 1.44338 20.0143 velocity 0 0 0 angularVelocity 0 0 0 radius 0.5
BaseParticle id 265 position 12 0.57735 20.0143 velocity 0 0 0 angularVelocity 0 0 0 radius 0.5
BaseParticle id 266 position 13.5 1.44338 20.0143 velocity 0 0 0 angularVelocity 0 0 0 radius 0.5
BaseParticle id 267 position 13 0.57735 20.0143 velocity 0 0 0 angularVelocity 0 0 0 radius 0.5
BaseParticle id 268 position 14.5 1.44338 20.0143 velocity 0 0 0 angularVelocity 0 0 0 radius 0.5
BaseParticle id 269 position 14 0.57735 20.0143 velocity 0 0 0 angularVelocity 0 0 0 radius 0.5
BaseParticle id 270 position 15.5 1.44338 20.0143 velocity 0 0 0 angularVelocity 0 0 0 radius 0.5
BaseParticle id 271 position 15 0.57735 20.0143 velocity 0 0 0 angularVelocity 0 0 0 radius 0.5
BaseParticle id 272 position 16.5 1.44338 20.0143 velocity 0 0 0 angularVelocity 0 0 0 radius 0.5
BaseParticle id 273 position 16 0.57735 20.0143 velocity 0 0 0 angularVelocity 0 0 0 radius 0.5
BaseParticle id 274 position 17.5 1.44338 20.0143 velocity 0 0 0 angularVelocity 0 0 0 radius 0.5
BaseParticle id 275 position 17 0.57735 20.0143 velocity 0 0 0 angularVelocity 0 0 0 radius 0.5
BaseParticle id 276 position 18.5 1.44338 20.0143 velocity 0 0 0 angularVelocity 0 0 0 radius 0.5
BaseParticle id 277 position 18 0.57735 20.0143 velocity 0 0 0 angularVelocity 0 0 0 radius 0.5
BaseParticle id 278 position 19.5 1.44338 20.0143 velocity 0 0 0 angularVelocity 0 0 0 radius 0.5
BaseParticle id 279 position 19 0.57735 20.0143 velocity 0 0 0 angularVelocity 0 0 0 radius 0.5
BaseParticle id 280 position 0.5 3.17543 20.0143 velocity 0 0 0 angularVelocity 0 0 0 radius 0.5
BaseParticle id 281 position 0 2.3094 20.0143 velocity 0 0 0 angularVelocity 0 0 0 radius 0.5
BaseParticle id 282 position 1.5 3.17543 20.0143 velocity 0 0 0 angularVelocity 0 0 0 radius 0.5
BaseParticle id 283 position 1 2.3094 20.0143 velocity 0 0 0 angularVelocity 0 0 0 radius 0.5
BaseParticle id 284 position 2.5 3.17543 20.0143 velocity 0 0 0 angularVelocity 0 0 0 radius 0.5
BaseParticle id 285 position 2 2.3094 20.0143 velocity 0 0 0 angularVelocity 0 0 0 radius 0.5
BaseParticle id 286 position 3.5 3.17543 20.0143 velocity 0 0 0 angularVelocity 0 0 0 radius 0.5
BaseParticle id 287 position 3 2.3094 20.0143 velocity 0 0 0 angularVelocity 0 0 0 radius 0.5
BaseParticle id 288 position 4.5 3.17543 20.0143 velocity 0 0 0 angularVelocity 0 0 0 radius 0.5
BaseParticle id 289 position 4 2.3094 20.0143 velocity 0 0 0 angularVelocity 0 0 0 radius 0.5
BaseParticle id 290 position 5.5 3.17543 20.0143 velocity 0 0 0 angularVelocity 0 0 0 radius 0.5
BaseParticle id 291 position 5 2.3094 20.0143 velocity 0 0 0 angularVelocity 0 0 0 radius 0.5
BaseParticle id 292 position 6.5 3.17543 20.0143 velocity 0 0 0 angularVelocity 0 0 0 radius 0.5
BaseParticle id 293 position 6 2.3094 20.0143 velocity 0 0 0 angularVelocity 0 0 0 radius 0.5
BaseParticle id 294 position 7.5 3.17543 20.0143 velocity 0 0 0 angularVelocity 0 0 0 radius 0.5
BaseParticle id 295 position 7 2.3094 20.0143 velocity 0 0 0 angularVelocity 0 0 0 radius 0.5
BaseParticle id 296 position 8.5 3.17543 20.0143 velocity 0 0 0 angularVelocity 0 0 0 radius 0.5
BaseParticle id 297 position 8 2.3094 20.0143 velocity 0 0 0 angularVelocity 0 0 0 radius 0.5
BaseParticle id 298 position 9.5 3.17543 20.0143 velocity 0 0 0 angularVelocity 0 0 0 radius 0.5
BaseParticle id 299 position 9 2.3094 20.0143 velocity 0 0 0 angularVelocity 0 0 0 radius 0.5
BaseParticle id 300 position 10.5 3.17543 20.0143 velocity 0 0 0 angularVelocity 0 0 0 radius 0.5
BaseParticle id 301 position 10 2.3094 20.0143 velocity 0 0 0 angularVelocity 0 0 0 radius 0.5
BaseParticle id 302 position 11.5 3.17543 20.0143 velocity 0 0 0 angularVelocity 0 0 0 radius 0.5
BaseParticle id 303 position 11 2.3094 20.0143 velocity 0 0 0 angularVelocity 0 0 0 radius 0.5
BaseParticle id 304 position 12.5 3.17543 20.0143 velocity 0 0 0 angularVelocity 0 0 0 radius 0.5
BaseParticle id 305 position 12 2.3094 20.0143 velocity 0 0 0 angularVelocity 0 0 0 radius 0.5
BaseParticle id 306 position 13.5 3.17543 20.0143 velocity 0 0 0 angularVelocity 0 0 0 radius 0.5
BaseParticle id 307 position 13 2.3094 20.0143 velocity 0 0 0 angularVelocity 0 0 0 radius 0.5
BaseParticle id 308 position 14.5 3.17543 20.0143 velocity 0 0 0 angularVelocity 0 0 0 radius 0.5
BaseParticle id 309 position 14 2.3094 20.0143 velocity 0 0 0 angularVelocity 0 0 0 radius 0.5
BaseParticle id 310 position 15.5 3.17543 20.0143 velocity 0 0 0 angularVelocity 0 0 0 radius 0.5
BaseParticle id 311 position 15 2.3094 20.0143 velocity 0 0 0 angularVelocity 0 0 0 radius 0.5
BaseParticle id 312 position 16.5 3.17543 20.0143 velocity 0 0 0 angularVelocity 0 0 0 radius 0.5
BaseParticle id 313 position 16 2.3094 20.0143 velocity 0 0 0 angularVelocity 0 0 0 radius 0.5
BaseParticle id 314 position 17.5 3.17543 20.0143 velocity 0 0 0 angularVelocity 0 0 0 radius 0.5
BaseParticle id 315 position 17 2.3094 20.0143 velocity 0 0 0 angularVelocity 0 0 0 radius 0.5
BaseParticle id 316 position 18.5 3.17543 20.0143 velocity 0 0 0 angularVelocity 0 0 0 radius 0.5
BaseParticle id 317 position 18 2.3094 20.0143 velocity 0 0 0 angularVelocity 0 0 0 radius 0.5