xMin 0.5 xMax 20.5 yMin -0.5 yMax 9.8923 zMin -0.5 zMax 20.5
Walls 2
InfiniteWall id 0 position 0 0 -0.5 orientation 0.707106781186547 0 0.707106781186547 0 velocity 0 0 0 angularVelocity 0 0 0 force 0 0 0 torque 0 0 0
InfiniteWall id 1 position 0 0 20.5 orientation 0.707106781186547 0 -0.707106781186547 0 velocity 0 0 0 angularVelocity 0 0 0 force 0 0 0 torque 0 0 0
Boundaries 2
PeriodicBoundary id 0 normal 1 0 0 scaleFactor 1 distanceLeft 0.5 distanceRight 20.5 shift 20 0 0
PeriodicBoundary id 1 normal 0 1 0 scaleFactor 1 distanceLeft -0.5 distanceRight 9.8923 shift 0 10.3923 0
Particles 3480
id 0 position 1 0 0 radius 0.5
id 1 position 2 0 0 radius 0.5
id 2 position 3 0 0 radius 0.5
id 3 position 4 0 0 radius 0.5
id 4 position 5 0 0 radius 0.5
id 5 position 6 0 0 radius 0.5
id 6 position 7 0 0 radius 0.5
id 7 position 8 0 0 radius 0.5
id 8 position 9 0 0 radius 0.5
id 9 position 10 0 0 radius 0.5
id 10 position 11 0 0 radius 0.5
id 11 position 12 0 0 radius 0.5
id 12 position 13 0 0 radius 0.5
id 13 position 14 0 0 radius 0.5
id 14 position 15 0 0 radius 0.5
id 15 position 16 0 0 radius 0.5
id 16 position 17 0 0 radius 0.5
id 17 position 18 0 0 radius 0.5
id 18 position 19 0 0 radius 0.5
id 19 position 20 0 0 radius 0.5
id 20 position 0.5 0.866025 0 radius 0.5
id 21 position 1.5 0.866025 0 radius 0.5
id 22 position 2.5 0.866025 0 radius 0.5
id 23 position 3.5 0.866025 0 radius 0.5
id 24 position 4.5 0.866025 0 radius 0.5
id 25 position 5.5 0.866025 0 radius 0.5
id 26 position 6.5 0.866025 0 radius 0.5
id 27 position 7.5 0.866025 0 radius 0.5
id 28 position 8.5 0.866025 0 radius 0.5
id 29 position 9.5 0.866025 0 radius 0.5
id 30 position 10.5 0.866025 0 radius 0.5
id 31 position 11.5 0.866025 0 radius 0.5
id 32 position 12.5 0.866025 0 radius 0.5
id 33 position 13.5 0.866025 0 radius 0.5
id 34 position 14.5 0.866025 0 radius 0.5
id 35 position 15.5 0.866025 0 radius 0.5
id 36 position 16.5 0.866025 0 radius 0.5
id 37 position 17.5 0.866025 0 radius 0.5
id 38 position 18.5 0.866025 0 radius 0.5
id 39 position 19.5 0.866025 0 radius 0.5
id 40 position 1 1.73205 0 radius 0.5
id 41 position 2 1.73205 0 radius 0.5
id 42 position 3 1.73205 0 radius 0.5
id 43 position 4 1.73205 0 radius 0.5
id 44 position 5 1.73205 0 radius 0.5
id 45 position 6 1.73205 0 radius 0.5
id 46 position 7 1.73205 0 radius 0.5
id 47 position 8 1.73205 0 radius 0.5
id 48 position 9 1.73205 0 radius 0.5
id 49 position 10 1.73205 0 radius 0.5
id 50 position 11 1.73205 0 radius 0.5
id 51 position 12 1.73205 0 radius 0.5
id 52 position 13 1.73205 0 radius 0.5
id 53 position 14 1.73205 0 radius 0.5
id 54 position 15 1.73205 0 radius 0.5
id 55 position 16 1.73205 0 radius 0.5
id 56 position 17 1.73205 0 radius 0.5
id 57 position 18 1.73205 0 radius 0.5
id 58 position 19 1.73205 0 radius 0.5
id 59 position 20 1.73205 0 radius 0.5
id 60 position 0.5 2.59808 0 radius 0.5
id 61 position 1.5 2.59808 0 radius 0.5
id 62 position 2.5 2.59808 0 radius 0.5
id 63 position 3.5 2.59808 0 radius 0.5
id 64 position 4.5 2.59808 0 radius 0.5
id 65 position 5.5 2.59808 0 radius 0.5
id 66 position 6.5 2.59808 0 radius 0.5
id 67 position 7.5 2.59808 0 radius 0.5
id 68 position 8.5 2.59808 0 radius 0.5
id 69 position 9.5 2.59808 0 radius 0.5
id 70 position 10.5 2.59808 0 radius 0.5
id 71 position 11.5 2.59808 0 radius 0.5
id 72 position 12.5 2.59808 0 radius 0.5
id 73 position 13.5 2.59808 0 radius 0.5
id 74 position 14.5 2.59808 0 radius 0.5
id 75 position 15.5 2.59808 0 radius 0.5
id 76 position 16.5 2.59808 0 radius 0.5
id 77 position 17.5 2.59808 0 radius 0.5
id 78 position 18.5 2.59808 0 radius 0.5
id 79 position 19.5 2.59808 0 radius 0.5
id 80 position 1 3.4641 0 radius 0.5
id 81 position 2 3.4641 0 radius 0.5
id 82 position 3 3.4641 0 radius 0.5
id 83 position 4 3.4641 0 radius 0.5
id 84 position 5 3.4641 0 radius 0.5
id 85 position 6 3.4641 0 radius 0.5
id 86 position 7 3.4641 0 radius 0.5
id 87 position 8 3.4641 0 radius 0.5
id 88 position 9 3.4641 0 radius 0.5
id 89 position 10 3.4641 0 radius 0.5
id 90 position 11 3.4641 0 radius 0.5
id 91 position 12 3.4641 0 radius 0.5
id 92 position 13 3.4641 0 radius 0.5
id 93 position 14 3.4641 0 radius 0.5
id 94 position 15 3.4641 0 radius 0.5
id 95 position 16 3.4641 0 radius 0.5
id 96 position 17 3.4641 0 radius 0.5
id 97 position 18 3.4641 0 radius 0.5
id 98 position 19 3.4641 0 radius 0.5
id 99 position 20 3.4641 0 radius 0.5
id 100 position 0.5 4.33013 0 radius 0.5
id 101 position 1.5 4.33013 0 radius 0.5
id 102 position 2.5 4.33013 0 radius 0.5
id 103 position 3.5 4.33013 0 radius 0.5
id 104 position 4.5 4.33013 0 radius 0.5
id 105 position 5.5 4.33013 0 radius 0.5
id 106 position 6.5 4.33013 0 radius 0.5
id 107 position 7.5 4.33013 0 radius 0.5
id 108 position 8.5 4.33013 0 radius 0.5
id 109 position 9.5 4.33013 0 radius 0.5
id 110 position 10.5 4.33013 0 radius 0.5
id 111 position 11.5 4.33013 0 radius 0.5
id 112 position 12.5 4.33013 0 radius 0.5
id 113 position 13.5 4.33013 0 radius 0.5
id 114 position 14.5 4.33013 0 radius 0.5
id 115 position 15.5 4.33013 0 radius 0.5
id 116 position 16.5 4.33013 0 radius 0.5
id 117 position 17.5 4.33013 0 radius 0.5
id 118 position 18.5 4.33013 0 radius 0.5
id 119 position 19.5 4.33013 0 radius 0.5
id 120 position 1 5.19615 0 radius 0.5
id 121 position 2 5.19615 0 radius 0.5
id 122 position 3 5.19615 0 radius 0.5
id 123 position 4 5.19615 0 radius 0.5
id 124 position 5 5.19615 0 radius 0.5
id 125 position 6 5.19615 0 radius 0.5
id 126 position 7 5.19615 0 radius 0.5
id 127 position 8 5.19615 0 radius 0.5
id 128 position 9 5.19615 0 radius 0.5
id 129 position 10 5.19615 0 radius 0.5
id 130 position 11 5.19615 0 radius 0.5
id 131 position 12 5.19615 0 radius 0.5
id 132 position 13 5.19615 0 radius 0.5
id 133 position 14 5.19615 0 radius 0.5
id 134 position 15 5.19615 0 radius 0.5
id 135 position 16 5.19615 0 radius 0.5
id 136 position 17 5.19615 0 radius 0.5
id 137 position 18 5.19615 0 radius 0.5
id 138 position 19 5.19615 0 radius 0.5
id 139 position 20 5.19615 0 radius 0.5
id 140 position 0.5 6.06218 0 radius 0.5
id 141 position 1.5 6.06218 0 radius 0.5
id 142 position 2.5 6.06218 0 radius 0.5
id 143 position 3.5 6.06218 0 radius 0.5
id 144 position 4.5 6.06218 0 radius 0.5
id 145 position 5.5 6.06218 0 radius 0.5
id 146 position 6.5 6.06218 0 radius 0.5
id 147 position 7.5 6.06218 0 radius 0.5
id 148 position 8.5 6.06218 0 radius 0.5
id 149 position 9.5 6.06218 0 radius 0.5
id 150 position 10.5 6.06218 0 radius 0.5
id 151 position 11.5 6.06218 0 radius 0.5
id 152 position 12.5 6.06218 0 radius 0.5
id 153 position 13.5 6.06218 0 radius 0.5
id 154 position 14.5 6.06218 0 radius 0.5
id 155 position 15.5 6.06218 0 radius 0.5
id 156 position 16.5 6.06218 0 radius 0.5
id 157 position 17.5 6.06218 0 radius 0.5
id 158 position 18.5 6.06218 0 radius 0.5
id 159 position 19.5 6.06218 0 radius 0.5
id 160 position 1 6.9282 0 radius 0.5
id 161 position 2 6.9282 0 radius 0.5
id 162 position 3 6.9282 0 radius 0.5
id 163 position 4 6.9282 0 radius 0.5
id 164 position 5 6.9282 0 radius 0.5
id 165 position 6 6.9282 0 radius 0.5
id 166 position 7 6.9282 0 radius 0.5
id 167 position 8 6.9282 0 radius 0.5
id 168 position 9 6.9282 0 radius 0.5
id 169 position 10 6.9282 0 radius 0.5
id 170 position 11 6.9282 0 radius 0.5
id 171 position 12 6.9282 0 radius 0.5
id 172 position 13 6.9282 0 radius 0.5
id 173 position 14 6.9282 0 radius 0.5
id 174 position 15 6.9282 0 radius 0.5
id 175 position 16 6.9282 0 radius 0.5
id 176 position 17 6.9282 0 radius 0.5
id 177 position 18 6.9282 0 radius 0.5
id 178 position 19 6.9282 0 radius 0.5
id 179 position 20 6.9282 0 radius 0.5
id 180 position 0.5 7.79423 0 radius 0.5
id 181 position 1.5 7.79423 0 radius 0.5
id 182 position 2.5 7.79423 0 radius 0.5
id 183 position 3.5 7.79423 0 radius 0.5
id 184 position 4.5 7.79423 0 radius 0.5
id 185 position 5.5 7.79423 0 radius 0.5
id 186 position 6.5 7.79423 0 radius 0.5
id 187 position 7.5 7.79423 0 radius 0.5
id 188 position 8.5 7.79423 0 radius 0.5
id 189 position 9.5 7.79423 0 radius 0.5
id 190 position 10.5 7.79423 0 radius 0.5
id 191 position 11.5 7.79423 0 radius 0.5
id 192 position 12.5 7.79423 0 radius 0.5
id 193 position 13.5 7.79423 0 radius 0.5
id 194 position 14.5 7.79423 0 radius 0.5
id 195 position 15.5 7.79423 0 radius 0.5
id 196 position 16.5 7.79423 0 radius 0.5
id 197 position 17.5 7.79423 0 radius 0.5
id 198 position 18.5 7.79423 0 radius 0.5
id 199 position 19.5 7.79423 0 radius 0.5
id 200 position 1 8.66025 0 radius 0.5
id 201 position 2 8.66025 0 radius 0.5
id 202 position 3 8.66025 0 radius 0.5
id 203 position 4 8.66025 0 radius 0.5
id 204 position 5 8.66025 0 radius 0.5
id 205 position 6 8.66025 0 radius 0.5
id 206 position 7 8.66025 0 radius 0.5
id 207 position 8 8.66025 0 radius 0.5
id 208 position 9 8.66025 0 radius 0.5
id 209 position 10 8.66025 0 radius 0.5
id 210 position 11 8.66025 0 radius 0.5
id 211 position 12 8.66025 0 radius 0.5
id 212 position 13 8.66025 0 radius 0.5
id 213 position 14 8.66025 0 radius 0.5
id 214 position 15 8.66025 0 radius 0.5
id 215 position 16 8.66025 0 radius 0.5
id 216 position 17 8.66025 0 radius 0.5
id 217 position 18 8.66025 0 radius 0.5
id 218 position 19 8.66025 0 radius 0.5
id 219 position 20 8.66025 0 radius 0.5
id 220 position 0.5 9.52628 0 radius 0.5
id 221 position 1.5 9.52628 0 radius 0.5
id 222 position 2.5 9.52628 0 radius 0.5
id 223 position 3.5 9.52628 0 radius 0.5
id 224 position 4.5 9.52628 0 radius 0.5
id 225 position 5.5 9.52628 0 radius 0.5
id 226 position 6.5 9.52628 0 radius 0.5
id 227 position 7.5 9.52628 0 radius 0.5
id 228 position 8.5 9.52628 0 radius 0.5
id 229 position 9.5 9.52628 0 radius 0.5
id 230 position 10.5 9.52628 0 radius 0.5
id 231 position 11.5 9.52628 0 radius 0.5
id 232 position 12.5 9.52628 0 radius 0.5
id 233 position 13.5 9.52628 0 radius 0.5
id 234 position 14.5 9.52628 0 radius 0.5
id 235 position 15.5 9.52628 0 radius 0.5
id 236 position 16.5 9.52628 0 radius 0.5
id 237 position 17.5 9.52628 0 radius 0.5
id 238 position 18.5 9.52628 0 radius 0.5
id 239 position 19.5 9.52628 0 radius 0.5
id 240 position 1 0 20 radius 0.5
id 241 position 2 0 20 radius 0.5
id 242 position 3 0 20 radius 0.5
id 243 position 4 0 20 radius 0.5
id 244 position 5 0 20 radius 0.5
id 245 position 6 0 20 radius 0.5
id 246 position 7 0 20 radius 0.5
id 247 position 8 0 20 radius 0.5
id 248 position 9 0 20 radius 0.5
id 249 position 10 0 20 radius 0.5
id 250 position 11 0 20 radius 0.5
id 251 position 12 0 20 radius 0.5
id 252 position 13 0 20 radius 0.5
id 253 position 14 0 20 radius 0.5
id 254 position 15 0 20 radius 0.5
id 255 position 16 0 20 radius 0.5
id 256 position 17 0 20 radius 0.5
id 257 position 18 0 20 radius 0.5
id 258 position 19 0 20 radius 0.5
id 259 position 20 0 20 radius 0.5
id 260 position 0.5 0.866025 20 radius 0.5
id 261 position 1.5 0.866025 20 radius 0.5
id 262 position 2.5 0.866025 20 radius 0.5
id 263 position 3.5 0.866025 20 radius 0.5
id 264 position 4.5 0.866025 20 radius 0.5
id 265 position 5.5 0.866025 20 radius 0.5
id 266 position 6.5 0.866025 20 radius 0.5
id 267 position 7.5 0.866025 20 radius 0.5
id 268 position 8.5 0.866025 20 radius 0.5
id 269 position 9.5 0.866025 20 radius 0.5
id 270 position 10.5 0.866025 20 radius 0.5
id 271 position 11.5 0.866025 20 radius 0.5
id 272 position 12.5 0.866025 20 radius 0.5
id 273 position 13.5 0.866025 20 radius 0.5
id 274 position 14.5 0.866025 20 radius 0.5
id 275 position 15.5 0.866025 20 radius 0.5
id 276 position 16.5 0.866025 20 radius 0.5
id 277 position 17.5 0.866025 20 radius 0.5
id 278 position 18.5 0.866025 20 radius 0.5
id 279 position 19.5 0.866025 20 radius 0.5
id 280 position 1 1.73205 20 radius 0.5
id 281 position 2 1.73205 20 radius 0.5
id 282 position 3 1.73205 20 radius 0.5
id 283 position 4 1.73205 20 radius 0.5
id 284 position 5 1.73205 20 radius 0.5
id 285 position 6 1.73205 20 radius 0.5
id 286 position 7 1.73205 20 radius 0.5
id 287 position 8 1.73205 20 radius 0.5
id 288 position 9 1.73205 20 radius 0.5
id 289 position 10 1.73205 20 radius 0.5
id 290 position 11 1.73205 20 radius 0.5
id 291 position 12 1.73205 20 radius 0.5
id 292 position 13 1.73205 20 radius 0.5
id 293 position 14 1.73205 20 radius 0.5
id 294 position 15 1.73205 20 radius 0.5
id 295 position 16 1.73205 20 radius 0.5
id 296 position 17 1.73205 20 radius 0.5
id 297 position 18 1.73205 20 radius 0.5
id 298 position 19 1.73205 20 radius 0.5
id 299 position 20 1.73205 20 radius 0.5
id 300 position 0.5 2.59808 20 radius 0.5
id 301 position 1.5 2.59808 20 radius 0.5
id 302 position 2.5 2.59808 20 radius 0.5
id 303 position 3.5 2.59808 20 radius 0.5
id 304 position 4.5 2.59808 20 radius 0.5
id 305 position 5.5 2.59808 20 radius 0.5
id 306 position 6.5 2.59808 20 radius 0.5
id 307 position 7.5 2.59808 20 radius 0.5
id 308 position 8.5 2.59808 20 radius 0.5
id 309 position 9.5 2.59808 20 radius 0.5
id 310 position 10.5 2.59808 20 radius 0.5
id 311 position 11.5 2.59808 20 radius 0.5
id 312 position 12.5 2.59808 20 radius 0.5
id 313 position 13.5 2.59808 20 radius 0.5
id 314 position 14.5 2.59808 20 radius 0.5
id 315 position 15.5 2.59808 20 radius 0.5
id 316 position 16.5 2.59808 20 radius 0.5
id 317 position 17.5 2.59808 20 radius 0.5
id 318 position 18.5 2.59808 20 radius 0.5
id 319 position 19.5 2.59808 20 radius 0.5
id 320 position 1 3.4641 20 radius 0.5
id 321 position 2 3.4641 20 radius 0.5
id 322 position 3 3.4641 20 radius 0.5
id 323 position 4 3.4641 20 radius 0.5
id 324 position 5 3.4641 20 radius 0.5
id 325 position 6 3.4641 20 radius 0.5
id 326 position 7 3.4641 20 radius 0.5
id 327 position 8 3.4641 20 radius 0.5
id 328 position 9 3.4641 20 radius 0.5
id 329 position 10 3.4641 20 radius 0.5
id 330 position 11 3.4641 20 radius 0.5
id 331 position 12 3.4641 20 radius 0.5
id 332 position 13 3.4641 20 radius 0.5
id 333 position 14 3.4641 20 radius 0.5
id 334 position 15 3.4641 20 radius 0.5
id 335 position 16 3.4641 20 radius 0.5
id 336 position 17 3.4641 20 radius 0.5
id 337 position 18 3.4641 20 radius 0.5
id 338 position 19 3.4641 20 radius 0.5
id 339 position 20 3.4641 20 radius 0.5
id 340 position 0.5 4.33013 20 radius 0.5
id 341 position 1.5 4.33013 20 radius 0.5
id 342 position 2.5 4.33013 20 radius 0.5
id 343 position 3.5 4.33013 20 radius 0.5
id 344 position 4.5 4.33013 20 radius 0.5
id 345 position 5.5 4.33013 20 radius 0.5
id 346 position 6.5 4.33013 20 radius 0.5
id 347 position 7.5 4.33013 20 radius 0.5
id 348 position 8.5 4.33013 20 radius 0.5
id 349 position 9.5 4.33013 20 radius 0.5
id 350 position 10.5 4.33013 20 radius 0.5
id 351 position 11.5 4.33013 20 radius 0.5
id 352 position 12.5 4.33013 20 radius 0.5
id 353 position 13.5 4.33013 20 radius 0.5
id 354 position 14.5 4.33013 20 radius 0.5
id 355 position 15.5 4.33013 20 radius 0.5
id 356 position 16.5 4.33013 20 radius 0.5
id 357 position 17.5 4.33013 20 radius 0.5
id 358 position 18.5 4.33013 20 radius 0.5
id 359 position 19.5 4.33013 20 radius 0.5
id 360 position 1 5.19615 20 radius 0.5
id 361 position 2 5.19615 20 radius 0.5
id 362 position 3 5.19615 20 radius 0.5
id 363 position 4 5.19615 20 radius 0.5
id 364 position 5 5.19615 20 radius 0.5
id 365 position 6 5.19615 20 radius 0.5
id 366 position 7 5.19615 20 radius 0.5
id 367 position 8 5.19615 20 radius 0.5
id 368 position 9 5.19615 20 radius 0.5
id 369 position 10 5.19615 20 radius 0.5
id 370 position 11 5.19615 20 radius 0.5
id 371 position 12 5.19615 20 radius 0.5
id 372 position 13 5.19615 20 radius 0.5
id 373 position 14 5.19615 20 radius 0.5
id 374 position 15 5.19615 20 radius 0.5
id 375 position 16 5.19615 20 radius 0.5
id 376 position 17 5.19615 20 radius 0.5
id 377 position 18 5.19615 20 radius 0.5
id 378 position 19 5.19615 20 radius 0.5
id 379 position 20 5.19615 20 radius 0.5
id 380 position 0.5 6.06218 20 radius 0.5
id 381 position 1.5 6.06218 20 radius 0.5
id 382 position 2.5 6.06218 20 radius 0.5
id 383 position 3.5 6.06218 20 radius 0.5
id 384 position 4.5 6.06218 20 radius 0.5
id 385 position 5.5 6.06218 20 radius 0.5
id 386 position 6.5 6.06218 20 radius 0.5
id 387 position 7.5 6.06218 20 radius 0.5
id 388 position 8.5 6.06218 20 radius 0.5
id 389 position 9.5 6.06218 20 radius 0.5
id 390 position 10.5 6.06218 20 radius 0.5
id 391 position 11.5 6.06218 20 radius 0.5
id 392 position 12.5 6.06218 20 radius 0.5
id 393 position 13.5 6.06218 20 radius 0.5
id 394 position 14.5 6.06218 20 radius 0.5
id 395 position 15.5 6.06218 20 radius 0.5
id 396 position 16.5 6.06218 20 radius 0.5
id 397 position 17.5 6.06218 20 radius 0.5
id 398 position 18.5 6.06218 20 radius 0.5
id 399 position 19.5 6.06218 20 radius 0.5
id 400 position 1 6.9282 20 radius 0.5
id 401 position 2 6.9282 20 radius 0.5
id 402 position 3 6.9282 20 radius 0.5
id 403 position 4 6.9282 20 radius 0.5
id 404 position 5 6.9282 20 radius 0.5
id 405 position 6 6.9282 20 radius 0.5
id 406 position 7 6.9282 20 radius 0.5
id 407 position 8 6.9282 20 radius 0.5
id 408 position 9 6.9282 20 radius 0.5
id 409 position 10 6.9282 20 radius 0.5
id 410 position 11 6.9282 20 radius 0.5
id 411 position 12 6.9282 20 radius 0.5
id 412 position 13 6.9282 20 radius 0.5
id 413 position 14 6.9282 20 radius 0.5
id 414 position 15 6.9282 20 radius 0.5
id 415 position 16 6.9282 20 radius 0.5
id 416 position 17 6.9282 20 radius 0.5
id 417 position 18 6.9282 20 radius 0.5
id 418 position 19 6.9282 20 radius 0.5
id 419 position 20 6.9282 20 radius 0.5
id 420 position 0.5 7.79423 20 radius 0.5
id 421 position 1.5 7.79423 20 radius 0.5
id 422 position 2.5 7.79423 20 radius 0.5
id 423 position 3.5 7.79423 20 radius 0.5
id 424 position 4.5 7.79423 20 radius 0.5
id 425 position 5.5 7.79423 20 radius 0.5
id 426 position 6.5 7.79423 20 radius 0.5
id 427 position 7.5 7.79423 20 radius 0.5
id 428 position 8.5 7.79423 20 radius 0.5
id 429 position 9.5 7.79423 20 radius 0.5
id 430 position 10.5 7.79423 20 radius 0.5
id 431 position 11.5 7.79423 20 radius 0.5
id 432 position 12.5 7.79423 20 radius 0.5
id 433 position 13.5 7.79423 20 radius 0.5
id 434 position 14.5 7.79423 20 radius 0.5
id 435 position 15.5 7.79423 20 radius 0.5
id 436 position 16.5 7.79423 20 radius 0.5
id 437 position 17.5 7.79423 20 radius 0.5
id 438 position 18.5 7.79423 20 radius 0.5
id 439 position 19.5 7.79423 20 radius 0.5
id 440 position 1 8.66025 20 radius 0.5
id 441 position 2 8.66025 20 radius 0.5
id 442 position 3 8.66025 20 radius 0.5
id 443 position 4 8.66025 20 radius 0.5
id 444 position 5 8.66025 20 radius 0.5
id 445 position 6 8.66025 20 radius 0.5
id 446 position 7 8.66025 20 radius 0.5
id 447 position 8 8.66025 20 radius 0.5
id 448 position 9 8.66025 20 radius 0.5
id 449 position 10 8.66025 20 radius 0.5
id 450 position 11 8.66025 20 radius 0.5
id 451 position 12 8.66025 20 radius 0.5
id 452 position 13 8.66025 20 radius 0.5
id 453 position 14 8.66025 20 radius 0.5
id 454 position 15 8.66025 20 radius 0.5
id 455 position 16 8.66025 20 radius 0.5
id 456 position 17 8.66025 20 radius 0.5
id 457 position 18 8.66025 20 radius 0.5
id 458 position 19 8.66025 20 radius 0.5
id 459 position 20 8.66025 20 radius 0.5
id 460 position 0.5 9.52628 20 radius 0.5
id 461 position 1.5 9.52628 20 radius 0.5
id 462 position 2.5 9.52628 20 radius 0.5
id 463 position 3.5 9.52628 20 radius 0.5
id 464 position 4.5 9.52628 20 radius 0.5
id 465 position 5.5 9.52628 20 radius 0.5
id 466 position 6.5 9.52628 20 radius 0.5
id 467 position 7.5 9.52628 20 radius 0.5
id 468 position 8.5 9.52628 20 radius 0.5
id 469 position 9.5 9.52628 20 radius 0.5
id 470 position 10.5 9.52628 20 radius 0.5
id 471 position 11.5 9.52628 20 radius 0.5
id 472 position 12.5 9.52628 20 radius 0.5
id 473 position 13.5 9.52628 20 radius 0.5
id 474 position 14.5 9.52628 20 radius 0.5
id 475 position 15.5 9.52628 20 radius 0.5
id 476 position 16.5 9.52628 20 radius 0.5
id 477 position 17.5 9.52628 20 radius 0.5
id 478 position 18.5 9.52628 20 radius 0.5
id 479 position 19.5 9.52628 20 radius 0.5
id 480 position 9.98752 7.34133 6.55242 radius 0.5
id 481 position 6.62161 4.40921 2.48433 radius 0.5
id 482 position 2.00536 3.14989 7.73917 radius 0.5
id 483 position 10.9991 -0.122929 13.1918 radius 0.5
id 484 position 16.837 7.4139 1.9126 radius 0.5
id 485 position 4.96174 9.78827 3.19586 radius 0.5
id 486 position 14.7147 8.85457 16.0476 radius 0.5
id 487 position 3.51246 0.497678 19.0629 radius 0.5
id 488 position 6.25304 1.73656 16.2411 radius 0.5
id 489 position 5.05272 1.09025 13.5907 radius 0.5
id 490 position 14.5455 6.63252 2.96658 radius 0.5
id 491 position 19.8351 5.88678 14.6894 radius 0.5
id 492 position 3.41769 0.983975 10.3374 radius 0.5
id 493 position 10.8746 6.65222 17.9322 radius 0.5
id 494 position 10.1502 1.09079 11.1386 radius 0.5
id 495 position 13.334 7.67248 9.29967 radius 0.5
id 496 position 16.2371 8.08152 6.66316 radius 0.5
id 497 position 16.2426 6.15698 9.73487 radius 0.5
id 498 position 13.0973 9.06402 7.85261 radius 0.5
id 499 position 10.7944 8.36201 7.9577 radius 0.5
id 500 position 18.9057 7.49121 16.0871 radius 0.5
id 501 position 8.1814 8.50414 18.0858 radius 0.5
id 502 position 9.75983 7.45996 13.7099 radius 0.5
id 503 position 10.9871 5.84415 8.82103 radius 0.5
id 504 position 3.44559 3.55013 10.2346 radius 0.5
id 505 position 10.6615 6.04982 2.80852 radius 0.5
id 506 position 1.53547 6.96562 14.4603 radius 0.5
id 507 position 8.00884 7.27724 10.7039 radius 0.5
id 508 position 4.10986 0.469297 1.53416 radius 0.5
id 509 position 19.0113 6.61818 7.78103 radius 0.5
id 510 position 8.3539 9.2729 2.96315 radius 0.5
id 511 position 11.2376 0.629328 8.55346 radius 0.5
id 512 position 8.7952 6.54126 14.3441 radius 0.5
id 513 position 13.8357 4.97445 11.6229 radius 0.5
id 514 position 7.12344 7.67388 5.66163 radius 0.5
id 515 position 7.86236 3.16274 7.90741 radius 0.5
id 516 position 1.55528 8.33956 18.9676 radius 0.5
id 517 position 10.6379 9.33506 16.5388 radius 0.5
id 518 position 11.092 3.54522 5.52039 radius 0.5
id 519 position 7.14587 8.12526 12.6434 radius 0.5
id 520 position 8.04811 8.50048 10.924 radius 0.5
id 521 position 10.339 7.65602 16.3603 radius 0.5
id 522 position 13.9656 4.67886 6.73156 radius 0.5
id 523 position 3.43646 4.27178 8.84926 radius 0.5
id 524 position 10.9346 5.44726 4.54512 radius 0.5
id 525 position 3.24622 7.72329 17.9321 radius 0.5
id 526 position 6.32569 8.83396 8.48365 radius 0.5
id 527 position 5.67799 6.64211 1.25562 radius 0.5
id 528 position 20.2072 9.4756 7.76732 radius 0.5
id 529 position 7.75948 6.70432 5.81157 radius 0.5
id 530 position 12.2789 4.31621 18.2795 radius 0.5
id 531 position 19.7941 5.5204 4.00315 radius 0.5
id 532 position 2.18628 9.47537 7.44744 radius 0.5
id 533 position 12.0178 8.06042 15.0895 radius 0.5
id 534 position 12.329 9.31924 11.1429 radius 0.5
id 535 position 19.2906 7.40538 7.03255 radius 0.5
id 536 position 18.1402 5.55997 8.38725 radius 0.5
id 537 position 3.33717 7.69659 13.6842 radius 0.5
id 538 position 14.5 1.10843 4.84193 radius 0.5
id 539 position 19.3887 1.12779 15.705 radius 0.5
id 540 position 9.59009 0.030205 2.02076 radius 0.5
id 541 position 13.0089 1.82285 1.9549 radius 0.5
id 542 position 15.4664 8.21585 8.5831 radius 0.5
id 543 position 10.5473 7.26309 13.0879 radius 0.5
id 544 position 19.3976 2.11754 2.92693 radius 0.5
id 545 position 8.35353 4.01869 11.3743 radius 0.5
id 546 position 6.1155 9.75504 18.943 radius 0.5
id 547 position 18.3531 9.43351 17.7062 radius 0.5
id 548 position 2.46538 8.00854 0.976946 radius 0.5
id 549 position 1.90038 2.24297 8.39039 radius 0.5
id 550 position 14.261 7.54656 15.4236 radius 0.5
id 551 position 8.93185 6.18076 11.1673 radius 0.5
id 552 position 18.0853 3.76717 6.17508 radius 0.5
id 553 position 17.2675 4.3542 13.287 radius 0.5
id 554 position 13.0231 9.56595 17.8599 radius 0.5
id 555 position 0.744486 7.03242 17.405 radius 0.5
id 556 position 3.67234 -0.185391 8.30904 radius 0.5
id 557 position 10.0471 -0.494602 19.1196 radius 0.5
id 558 position 8.22385 0.258385 15.6546 radius 0.5
id 559 position 4.84694 3.88761 14.8196 radius 0.5
id 560 position 5.4377 1.97199 0.882984 radius 0.5
id 561 position 1.01046 1.32318 19.0583 radius 0.5
id 562 position 10.5905 2.78115 14.2123 radius 0.5
id 563 position 1.94083 5.55481 4.48557 radius 0.5
id 564 position 19.4957 9.51937 9.16309 radius 0.5
id 565 position 19.7466 3.27959 12.1176 radius 0.5
id 566 position 19.3363 1.19468 13.4357 radius 0.5
id 567 position 10.4147 4.48735 18.7458 radius 0.5
id 568 position 17.7566 -0.428277 18.8936 radius 0.5
id 569 position 16.4019 8.00114 12.3339 radius 0.5
id 570 position 1.77303 7.59345 11.8193 radius 0.5
id 571 position 14.6996 7.08956 2.00024 radius 0.5
id 572 position 19.4356 5.11536 9.70312 radius 0.5
id 573 position 13.0067 4.12119 11.9341 radius 0.5
id 574 position 12.9245 2.83359 18.9749 radius 0.5
id 575 position 0.791307 0.649881 6.56895 radius 0.5
id 576 position 10.5611 6.43028 6.54077 radius 0.5
id 577 position 16.4157 9.61641 5.77925 radius 0.5
id 578 position 4.50168 3.4197 18.9166 radius 0.5
id 579 position 6.60644 5.84863 9.59606 radius 0.5
id 580 position 11.159 8.98704 15.1221 radius 0.5
id 581 position 20.191 5.43556 2.91437 radius 0.5
id 582 position 12.0906 0.628477 19.1134 radius 0.5
id 583 position 1.54092 2.06386 18.5595 radius 0.5
id 584 position 19.968 2.89522 1.10683 radius 0.5
id 585 position 16.6568 2.22277 3.20342 radius 0.5
id 586 position 18.9753 9.45457 10.2382 radius 0.5
id 587 position 10.5312 4.86922 9.09957 radius 0.5
id 588 position 11.6027 5.08641 0.924142 radius 0.5
id 589 position 1.58082 4.109 9.94809 radius 0.5
id 590 position 12.8983 1.37776 18.1163 radius 0.5
id 591 position 15.6165 8.4945 17.8942 radius 0.5
id 592 position 1.2561 9.17767 7.77676 radius 0.5
id 593 position 19.092 8.46027 8.74153 radius 0.5
id 594 position 3.12646 5.24966 7.78576 radius 0.5
id 595 position 20.0957 2.36813 8.00356 radius 0.5
id 596 position 15.4626 7.59055 12.4457 radius 0.5
id 597 position 5.16432 4.43755 1.54193 radius 0.5
id 598 position 16.118 4.9906 12.5316 radius 0.5
id 599 position 4.47815 8.37292 13.8334 radius 0.5
id 600 position 13.7607 8.14151 8.49784 radius 0.5
id 601 position 19.4264 8.5144 15.7908 radius 0.5
id 602 position 15.9307 0.867477 15.6701 radius 0.5
id 603 position 4.26139 6.35045 13.1859 radius 0.5
id 604 position 7.90554 5.77643 19.0126 radius 0.5
id 605 position 10.9386 2.49502 8.51175 radius 0.5
id 606 position 17.339 2.96312 5.77307 radius 0.5
id 607 position 11.5602 7.279 11.4881 radius 0.5
id 608 position 10.2091 0.876113 2.00837 radius 0.5
id 609 position 10.6976 7.29191 5.83282 radius 0.5
id 610 position 18.3949 8.29452 7.85782 radius 0.5
id 611 position 8.14479 6.82952 8.06246 radius 0.5
id 612 position 9.8563 4.52942 6.70385 radius 0.5
id 613 position 1.66114 4.36188 1.98016 radius 0.5
id 614 position 2.52495 4.40114 17.2833 radius 0.5
id 615 position 13.0949 5.93328 14.4193 radius 0.5
id 616 position 4.34315 5.1492 3.49798 radius 0.5
id 617 position 1.59455 3.06207 3.83137 radius 0.5
id 618 position 1.40825 3.9359 11.0189 radius 0.5
id 619 position 13.6688 9.30024 9.82634 radius 0.5
id 620 position 16.555 4.0086 1.90141 radius 0.5
id 621 position 5.31546 7.94441 18.0143 radius 0.5
id 622 position 17.6882 8.85629 4.08958 radius 0.5
id 623 position 8.08832 6.787 16.5045 radius 0.5
id 624 position 5.05586 1.2284 15.9749 radius 0.5
id 625 position 18.7096 4.42691 9.5297 radius 0.5
id 626 position 16.8631 9.72978 8.3948 radius 0.5
id 627 position 1.59499 3.89947 4.82776 radius 0.5
id 628 position 0.526364 0.450956 17.9958 radius 0.5
id 629 position 2.94778 9.8345 9.47503 radius 0.5
id 630 position 6.33935 4.3055 18.0603 radius 0.5
id 631 position 18.5711 4.68176 1.93503 radius 0.5
id 632 position 17.723 9.45197 14.1579 radius 0.5
id 633 position 8.12382 0.765177 12.5521 radius 0.5
id 634 position 19.2997 4.59703 2.61662 radius 0.5
id 635 position 3.11444 3.45736 7.52569 radius 0.5
id 636 position 18.6229 -0.4604 1.05346 radius 0.5
id 637 position 16.6487 0.572183 6.66616 radius 0.5
id 638 position 4.68655 5.39591 5.56128 radius 0.5
id 639 position 17.6022 6.27145 3.4481 radius 0.5
id 640 position 8.98486 8.51627 6.24888 radius 0.5
id 641 position 13.1494 8.7919 11.7108 radius 0.5
id 642 position 4.13601 7.32389 9.11104 radius 0.5
id 643 position 8.99539 5.27947 17.2718 radius 0.5
id 644 position 17.3849 1.40387 18.9338 radius 0.5
id 645 position 12.9974 0.33424 11.1278 radius 0.5
id 646 position 10.9482 7.58963 17.4277 radius 0.5
id 647 position 17.0297 7.82195 0.945472 radius 0.5
id 648 position 2.75991 1.31508 4.23273 radius 0.5
id 649 position 5.52854 4.71405 15.3715 radius 0.5
id 650 position 18.4761 4.08302 16.4744 radius 0.5
id 651 position 8.51535 3.04867 17.1736 radius 0.5
id 652 position 12.0437 -0.470101 14.7355 radius 0.5
id 653 position 11.5724 1.35078 1.90637 radius 0.5
id 654 position 3.71704 2.8077 17.9146 radius 0.5
id 655 position 11.3372 1.60674 8.20566 radius 0.5
id 656 position 12.6172 3.43968 13.6095 radius 0.5
id 657 position 1.785 6.25208 15.526 radius 0.5
id 658 position 7.70504 5.18843 12.9495 radius 0.5
id 659 position 4.53394 1.53569 6.7956 radius 0.5
id 660 position 8.61745 9.62142 16.6533 radius 0.5
id 661 position 19.3209 2.09916 12.7227 radius 0.5
id 662 position 11.2988 -0.158804 11.8265 radius 0.5
id 663 position 14.862 2.12452 1.21869 radius 0.5
id 664 position 0.520242 2.78934 6.52517 radius 0.5
id 665 position 10.6895 1.62387 5.99985 radius 0.5
id 666 position 1.52773 0.586321 15.1731 radius 0.5
id 667 position 17.1431 9.17764 18.0071 radius 0.5
id 668 position 14.3513 -0.442882 10.3516 radius 0.5
id 669 position 8.97319 6.16906 19.1 radius 0.5
id 670 position 18.7148 6.51454 6.76623 radius 0.5
id 671 position 2.14238 5.62872 17.2038 radius 0.5
id 672 position 5.98924 1.84289 12.4384 radius 0.5
id 673 position 13.1439 1.16898 12.1312 radius 0.5
id 674 position 7.13038 6.48033 11.6023 radius 0.5
id 675 position 14.0561 -0.318167 9.30955 radius 0.5
id 676 position 10.1809 5.48602 6.48998 radius 0.5
id 677 position 17.1691 2.44844 15.696 radius 0.5